default_name
110493
  65.3256444  72.5229937  56.5570886  65.6482589  71.9804842  57.3453610
  66.0828796  72.6529763  55.9017107  64.6423876  72.0435096  55.9878740
  64.7973606  73.8262300  56.9883801  65.6444530  74.3745597  57.4019729
  64.1940918  74.5327373  55.7706908  65.0455769  74.7472447  55.1252385
  63.4707355  73.8942600  55.2634616  63.5621392  75.8824462  56.1273963
  64.0922920  76.5399435  57.0259062  62.7543796  76.3076807  55.2770122
  63.6649645  73.6122018  57.9866862  62.4293582  73.5008956  57.6533952
  64.0520538  73.5955182  59.2498796  65.0235171  73.8163132  59.4204541
  63.1185022  73.1997954  60.2755530  62.0932582  73.0494949  59.9358508
  63.4647419  71.7977403  60.7639232  64.3521647  71.9393675  61.3804559
  62.6279688  71.3534173  61.3007183  63.9033655  70.8341085  59.7357408
  65.1550313  70.4531823  59.3644203  66.0130872  70.7526670  59.9480041
  65.0291344  69.5400330  58.3332106  65.7723055  69.0140861  57.8960407
  63.7539631  69.3967261  57.9449964  63.2041657  68.6994774  56.8347603
  63.8238270  68.0899361  56.1943385  61.8089815  68.7256904  56.6693574
  61.3230668  68.1625531  55.8858830  60.9598679  69.5327386  57.4498818
  59.9069777  69.6849405  57.2627836  61.5220237  70.1532975  58.6139598
  60.8684504  70.6917129  59.2852211  62.9507910  70.1737923  58.7854912
  63.0268573  74.2045526  61.4988032  62.3911363  73.8859338  62.5462700
  63.8428849  75.2999191  61.4041867  64.4898905  75.5906749  60.6854178
  63.8156288  76.3398762  62.3863559  64.0083698  75.8403541  63.3356312
  65.0011370  77.3037514  62.2136367  65.8817236  76.6930974  62.0152882
  64.7571093  77.9210154  61.3493586  65.2102311  78.1806941  63.4971246
  64.3145509  78.7713437  63.6907817  65.4038331  77.5180557  64.3398290
  66.3275080  79.1645806  63.3690712  66.5764154  79.7389752  62.2665682
  66.9525841  79.3901580  64.4322498  62.4627339  77.0711716  62.4185495
  62.1114369  77.9079266  61.6114643  61.6023515  76.7158337  63.3904518
  61.9368705  76.1588932  64.1635904  60.2761803  77.2466699  63.5178605
  59.7817482  77.0834005  62.5594859  59.3780936  76.3404983  64.4168952
  59.8477678  76.4097903  65.3984275  57.9269637  76.9456375  64.3886364
  57.1973773  76.3084162  64.8894006  58.0676009  77.9511037  64.7826771
  57.5394712  77.1855110  63.3985640  59.4759879  74.8576041  64.1081841
  59.2271633  74.7243450  63.0554998  60.5014730  74.5385662  64.2944478
  58.6061979  74.0638967  65.0473203  57.5468664  74.2758276  64.9076241
  58.6612236  73.0210606  64.7341283  58.9679276  74.0801113  66.0749047
  60.3022830  78.7158355  63.9455264  60.9322015  78.9476521  64.9995604
  59.6893047  79.5829325  63.1315668  59.0700214  79.2776766  61.8544822
  58.4708111  78.3691375  61.9054200  59.8328345  79.0501244  61.1102294
  58.2619944  80.5375122  61.3980969  57.3398405  80.5539485  61.9799810
  57.9261946  80.6518184  60.3678782  59.2153657  81.5532870  61.9491628
  58.8500466  82.5761139  62.0393355  60.0694374  81.4580972  61.2794624
  59.6882064  81.0195285  63.2911034  60.6773694  81.4325265  63.4910837
  58.9093447  81.4059613  64.4689002  58.0297425  80.6995384  64.9715010
  59.1455757  82.6021859  65.0401047  59.8688779  83.2256500  64.7088110
  58.4951962  83.1156732  66.3157611  58.9064672  82.4171890  67.0447803
  59.0590000  84.4990285  66.5378837  60.1269980  84.2861220  66.4993190
  58.6360853  85.2340434  65.8525558  58.9295340  84.9350752  67.9982750
  58.3105649  84.2365483  68.8447261  59.5885811  86.0113958  68.3225957
  56.9654011  83.1529740  66.3123488  56.2566320  83.6262713  65.4266682
  56.4757474  82.7871259  67.5090461  57.1471215  82.4094704  68.1626377
  55.0296644  82.9007162  67.8723383  54.8666146  83.0566274  68.9385669
  54.6059387  83.7027014  67.2674860  54.1569090  81.6709907  67.4295875
  52.9993169  81.7134469  67.6881376  54.7510398  80.6115111  66.9108898
  55.6798898  80.4490233  67.2734109  53.8299152  79.5428826  66.2917383
  52.8743265  80.0131875  66.0583707  54.3775884  78.9086324  65.0152276
  55.3086857  78.3600369  65.1549803  53.6613810  78.2647345  64.5049144
  54.6032547  80.0596310  64.0152997  53.6687687  80.6202633  64.0141746
  55.4150248  80.6985104  64.3642543  54.8765129  79.6746750  62.5639924
  55.3358504  78.5216415  62.2863744  54.7321761  80.5597260  61.5959941
  55.0106533  80.2812386  60.6661494  54.2414624  81.4331254  61.7249304
  53.3922230  78.3929749  67.2444345  52.3037604  77.8490008  67.1401352
  54.2332752  78.0154139  68.1702362  55.0106899  78.6099076  68.4193179
  54.0569254  76.8035307  68.9822866  53.6649698  76.0617204  68.2864286
  55.4407257  76.2492148  69.4431581  55.8021370  76.8636523  70.2677686
  55.2276580  74.8923427  70.0941929  54.7921056  74.2178881  69.3569038
  56.1644908  74.5165003  70.5052120  54.5975772  75.1472434  70.9459826
  56.4762881  76.0942482  68.3410588  56.0937619  75.4053085  67.5887226
  56.5465941  77.0936948  67.9127392  57.9167929  75.6618393  68.7881724
  57.9549397  74.6130148  69.0845115  58.7436559  75.8674965  68.1083337
  58.1347882  76.2993105  69.6445208  53.0255268  77.0719922  70.0602492
  53.2697992  77.7620866  71.0584930  51.8036368  76.6076010  69.8988035
  51.5563751  76.2682855  68.9800720  50.8621297  76.6139243  71.0038598
  50.7850553  77.6116592  71.4353554  49.4744818  76.2502220  70.4806199
  49.5286657  75.4016273  69.7991039  48.4245127  75.9158195  71.5362396
  48.3743331  76.8210202  72.1414881  47.5088575  75.7092372  70.9826971
  48.6772293  75.0248065  72.1106298  48.9678098  77.2944705  69.7139084
  49.0660327  77.0295677  68.7966272  51.3040893  75.5961989  72.0191469
  51.7503219  74.5231743  71.5938710  51.2437859  75.9349914  73.3370631
  50.8118616  76.8127398  73.5897689  51.8782794  75.1505261  74.4019632
  51.7823506  74.1090591  74.0953931  53.4405562  75.3788292  74.4707090
  53.8210207  75.0921108  73.4908359  53.8120039  76.8774935  74.7070438
  53.6682572  77.3698112  73.7448977  53.1677085  77.4039774  75.4110552
  54.8729577  76.9633083  74.9435791  54.0510792  74.5607509  75.6036501
  53.6968305  73.5496121  75.4030803  55.1316721  74.4608672  75.5094417
  53.7270549  74.8435504  76.6051598  51.1723982  75.2743137  75.7614750
  51.0746192  76.3352247  76.2832873  50.6854723  74.1557642  76.2667187
  50.9050354  73.2802515  75.8148352  49.7854438  74.0395532  77.4261615
  49.3981569  75.0178137  77.7120310  48.8546426  73.5215941  77.1960802
  50.4255887  73.4035922  78.7178535  51.4873318  73.6665178  79.1867509
  49.6684679  72.4793023  79.3312077  48.7364898  72.3574437  78.9602397
  50.0538902  71.5989682  80.4658479  50.0610610  72.3551478  81.2513064
  48.9372026  70.5815876  80.6165243  49.2491648  69.7866895  81.2938798
  48.0248251  71.0258771  81.0147807  48.5120676  69.8028951  79.3245985
  47.9916393  70.4517365  78.6191651  49.4270687  69.4124039  78.8803435
  47.5885590  68.6824196  79.7015541  48.0010468  67.7722868  80.3326326
  46.3887487  68.6637735  79.1489488  45.8529110  67.8086715  79.1987147
  46.0672719  69.4413927  78.5908028  51.4331597  70.9020707  80.3214930
  51.7933537  70.4835924  79.2311462  52.3164654  70.9546946  81.3595603
  51.9976421  71.3135125  82.2482686  53.4064875  69.9949007  81.5285142
  54.0117944  70.0487580  80.6239541  54.3591042  70.3878098  82.7076205
  54.7979878  71.3466117  82.4327498  53.7158698  70.4782323  83.5826035
  55.5721391  69.4739294  82.9458117  55.2844226  68.4323107  83.0853351
  56.2193875  69.4734989  82.0685231  56.5008358  69.7250158  84.1245144
  57.2880796  68.9742242  84.1898903  56.9281027  70.7158243  83.9700912
  55.7892242  69.9533637  85.4296359  54.8243423  69.6583914  85.4017758
  56.2557130  70.3867801  86.5228652  57.4660599  70.6244623  86.7353379
  58.1317303  70.4617435  85.9930647  57.7910419  70.6344787  87.6912272
  55.4016012  70.4464347  87.5360583  54.4040343  70.3972096  87.3850642
  55.6956552  70.6045211  88.4897684  52.8582241  68.5459901  81.5305946
  51.7290376  68.4297574  81.9779409  53.6520217  67.6335353  81.0503012
  54.5160406  68.0675153  80.7566453  53.4841641  66.1633580  80.8091118
  52.5526908  65.7768458  81.2228956  53.5930136  65.9416336  79.2951768
  54.4457754  66.5096344  78.9224218  53.8076210  64.4825944  78.8577568
  52.8981143  64.0047521  79.2226093  53.9305181  64.3790179  77.7796185
  54.6876000  64.0624819  79.3441736  52.4914179  66.7214992  78.6549430
  52.6843916  67.7682218  78.8879967  52.6107619  66.7179016  77.5711819
  51.0139377  66.3955202  79.1146202  50.8877848  66.8387536  80.1031341
  50.2374356  66.7604864  78.4419739  50.8176599  65.3448053  79.3280709
  54.5963964  65.4272775  81.5183146  54.4001867  64.4618269  82.2493742
  55.7959321  66.0087985  81.5709031  55.9949744  66.7487541  80.9129808
  56.9545176  65.4337772  82.3330711  56.7895650  65.5220317  83.4061520
  57.0839870  64.3686747  82.1417616  58.2292685  66.1512778  82.0434488
  58.2251178  67.3639036  81.7919026  59.3977570  65.5195467  82.0744868
  59.4465488  64.5227448  82.2330533  60.6623316  66.0083874  81.5435264
  60.4231145  66.8782987  80.9314868  61.6217857  66.3924317  82.6574357
  60.9898604  66.8811982  83.3993465  61.8982004  65.4171189  83.0578203
  62.7241905  67.2000919  82.2064006  63.5639417  66.7378561  82.1609591
  61.5001918  64.9530147  80.7784384  61.3583544  63.7705028  81.0057024
  62.1674511  65.3043238  79.6947407  62.1695581  66.2660244  79.3867379
  63.1313786  64.4369101  79.0228431  62.7271973  63.4325984  78.8994557
  63.3896852  64.8114917  78.0323017  64.4424268  64.3553410  79.7983565
  64.5140659  64.7994708  80.9545532  65.5327394  63.8540697  79.1452077
  65.4213618  63.2603413  78.3359045  66.9068095  63.8378656  79.6662537
  66.8415636  63.3901550  80.6576281  67.8705912  62.9817707  78.8165364
  68.9130942  63.2262903  79.0218887  67.5954276  61.9265861  78.8413629
  67.8674017  63.4632525  77.4323948  67.0559769  63.1817058  77.0038457
  67.5860124  65.2832996  79.7607742  68.3555558  65.6061288  80.6798615
  67.1103779  66.2072455  78.9499607  66.5499956  65.8057732  78.2123120
  67.2434574  67.6878369  79.0721247  67.1883546  67.9683164  80.1242392
  68.6030774  68.1245250  78.2957576  68.5197923  67.8507142  77.2447883
  68.7153035  69.2075818  78.3491070  69.8869646  67.4682521  78.7113614
  70.5784286  67.9001193  79.8920482  70.0553107  68.5702026  80.5584131
  71.8791145  67.4449716  80.1814797  72.3847577  67.8693513  81.0369964
  72.3962397  66.3913840  79.4654918  73.3402321  65.9625388  79.7693408
  71.6137289  65.8362172  78.3926089  71.9601202  64.9252611  77.9257459
  70.3812952  66.4171815  77.9663206  69.9110454  66.0440100  77.0684714
  66.0529775  68.2907640  78.3799068  65.5708078  67.7586550  77.3732101
  65.3912899  69.2870620  79.0560376  65.8812057  69.8146646  79.7650052
  64.1142959  69.8414536  78.5368447  64.1093685  70.9017678  78.7901813
  64.0795436  69.5219058  77.4949140  62.8599503  69.2592628  79.2101959
  62.6220811  68.0174802  79.2616364  61.9933098  70.1174513  79.7885459
  62.2745739  71.0827079  79.8824195  60.6253999  69.8661329  80.2519859
  60.6412311  68.9527357  80.8483825  60.0175202  71.0183844  81.0524076
  60.2149790  71.9081226  80.4547238  58.5556491  70.9306105  81.3851019
  58.4526002  70.0097200  81.9600190  58.2431506  71.8292916  81.9167616
  57.8988575  70.8354723  80.5210859  60.7674632  71.2640050  82.2582624
  61.6015293  71.6463656  81.9752021  59.7618858  69.4561191  78.9923677
  60.0163934  69.8580627  77.8366267  58.7427733  68.6403043  79.2059351
  58.5865795  68.2860618  80.1393250  57.8821796  68.0950143  78.1726945
  58.3283580  68.3710063  77.2176535  57.9377808  66.5705876  78.0247421
  57.7883805  66.0964331  78.9946282  56.9615469  65.9651578  76.9922446
  57.2081324  66.3285016  75.9946090  57.0046871  64.8766925  77.0173686
  55.9184820  66.2497211  77.1299739  59.3255152  66.1280099  77.4721388
  59.5101865  66.7949119  76.6294744  60.0599896  66.3726647  78.2394896
  59.2812390  65.0784439  77.1831303  56.4643909  68.5867326  78.2809973
  55.8199507  68.2298826  79.1838150  56.0023240  69.4682460  77.3868507
  56.5226086  69.7059446  76.5538421  54.6812618  70.1342119  77.4705003
  54.1756625  69.9992471  78.4267612  54.7478277  71.6702780  77.3633513
  55.1470103  71.8227102  76.3605783  53.7166840  72.0207467  77.3895307
  55.6557658  72.3050511  78.4307722  57.0706153  72.4146631  78.2457670
  57.5327893  71.8941831  77.4199948  57.7962449  73.1167571  79.2492388
  58.8726451  73.0744045  79.1725977  57.1756626  73.7966495  80.3248340
  57.8850126  74.2371352  81.3664639  57.3709199  74.9287234  81.7905953
  55.7464432  73.6416541  80.5151166  55.2768473  74.1658451  81.3340228
  55.0222548  72.8886720  79.5577352  53.9570233  72.7756898  79.6959340
  53.9011193  69.5575105  76.3219560  54.4828440  69.2682290  75.2810191
  52.5496261  69.3073175  76.4155066  52.1174793  69.4315067  77.3199993
  51.5760509  69.1277023  75.2522887  51.9481948  68.4369930  74.4956220
  50.2569122  68.5167026  75.8082478  50.5663663  67.6420624  76.3796746
  49.8287655  69.2665163  76.4738850  49.3145921  68.1957858  74.6577961
  48.9401223  69.1112846  74.1991237  49.8937303  67.6948950  73.8816285
  48.1393193  67.2850854  75.1421027  48.4209734  66.3286415  75.5837246
  47.4289844  67.8237809  75.7688439  47.2751070  67.0171730  73.8639180
  46.4355278  67.7116448  73.9033232  47.7749251  67.3769715  72.9640609
  46.7680509  65.6574057  73.8233204  47.4662305  64.9491029  74.0015292
  46.0616272  65.4750287  74.5215819  46.3752822  65.5123934  72.9044454
  51.3327771  70.5080969  74.5409950  51.2882619  71.5761684  75.1678535
  51.2688929  70.4757354  73.1579598  51.3440728  69.6238606  72.6200488
  50.8305793  71.6478104  72.4362538  50.1107237  72.2748020  72.9622571
  51.6827101  72.2570479  72.1348229  50.1853871  71.2657858  71.0582966
  49.6572638  70.1615367  70.8112608  50.2756356  72.2866284  70.1804278
  50.8832869  73.0277794  70.4974139  49.7434829  72.3244797  68.8524539
  49.6659248  71.3165108  68.4462575  48.3646623  72.8891279  68.7471572
  48.3063375  73.9407091  69.0272790  48.0116479  72.8924733  67.7157720
  47.3883008  72.0716702  69.7222439  47.3908022  70.9950536  69.5483576
  47.7833118  72.2118331  70.7281215  45.9565017  72.5304652  69.5342770
  45.7282603  73.5093988  69.9567704  45.7958928  72.4974433  68.4567231
  45.0423870  71.4782314  70.2508071  45.4920772  70.5131911  70.0179381
  45.1736143  71.6864362  71.3132397  43.5347977  71.5601382  69.9964083
  43.0670852  71.0376233  70.7226377  43.2450763  72.5269919  69.9626657
  43.2364846  71.1871012  69.1064799  50.7670648  73.1168390  67.9219912
  50.9342666  74.3364433  68.2489635  51.2581805  72.5184510  66.8034841
  50.8900193  71.5954720  66.6245311  51.9593266  73.0762638  65.6467935
  51.5080458  74.0611905  65.5271444  53.3681563  73.3713480  66.0459653
  53.4531313  73.8793182  67.0064055  53.9348940  72.4817720  66.3201328
  54.1359748  74.1197697  65.0119818  54.0797572  75.4673931  64.8340473
  53.4346104  76.1028687  65.4213663  54.7745499  75.7761805  63.6288596
  54.8593356  76.6857543  63.1971919  55.3208431  74.6555066  63.0507327
  56.0331160  74.5278577  61.9333165  56.2728864  75.3236210  61.2431803
  56.7236681  73.3001127  61.7600774  57.4517371  73.2033691  60.9673692
  56.4621306  72.2357016  62.5840029  56.9273434  71.3069437  62.2892984
  55.6111771  72.3110796  63.6777243  55.3798928  71.4932540  64.3429759
  55.0318174  73.5786410  63.9288088  51.7530622  72.1810841  64.3477683
  52.3357058  71.1183185  64.2125628  50.8398257  72.5713434  63.5030726
  50.4648370  73.5050039  63.5910416  50.3170348  71.8501490  62.3483703
  49.5274475  72.4609927  61.9110238  51.3526226  71.8592033  61.1979892
  52.3693808  71.5948366  61.4861543  51.0703010  71.1761792  60.3964590
  51.4791820  73.2200115  60.4727734  50.6242627  73.7791944  59.5013737
  51.1226182  75.0145652  59.2307193  50.7263297  75.7228712  58.5181943
  52.1572975  75.2233214  60.0112740  52.6825652  76.0852117  59.9964108
  52.4173817  74.1494073  60.8068359  53.1761505  74.0308406  61.5665791
  49.7470281  70.5385604  62.7610210  50.1743493  69.4790467  62.3634905
  48.7729845  70.6475671  63.6640019  48.6533976  71.5764489  64.0430672
  48.2536380  69.5256792  64.4465879  47.1759355  69.6336423  64.5705850
  48.4328549  68.6172935  63.8714099  48.8407373  69.3400655  65.8036670
  49.6715764  70.1913460  66.1565097  48.4020242  68.3482487  66.4852097
  47.7285527  67.6843863  66.1314246  48.8807747  68.0997981  67.8779686
  48.5999208  68.9763385  68.4619103  48.0927925  66.9399437  68.4259092
  48.2526888  66.0880644  67.7646688  48.4948163  66.6358410  69.3926483
  46.6113406  67.1834535  68.6442327  45.9712305  66.1307444  69.0194547
  46.1544513  68.3325939  68.7845633  50.3526186  67.9015985  67.9662942
  50.9021307  67.3136010  67.0696245  51.0070147  68.3085652  68.9961966
  50.5600260  68.5826154  69.8593690  52.4319641  68.1336465  69.1265330
  52.6331666  67.2505232  68.5199790  53.2758396  69.3007483  68.5319939
  54.3356440  69.0556403  68.4609959  53.0042258  69.5364615  67.0642806
  53.6930418  70.1990874  66.5394668  53.0760678  68.5763502  66.5542033
  51.9399936  69.7732209  67.0732166  53.1675286  70.6348242  69.2370111
  53.2026295  70.7009086  70.3247918  53.7570291  71.3850579  68.7093185
  52.1516644  70.9847364  69.0512089  52.8577871  67.8950186  70.6231774
  52.3228073  68.3096042  71.6242170  54.0199167  67.2164120  70.7114889
  54.4806490  66.7472982  69.9441669  54.8012320  67.0105169  71.9117470
  54.2624978  67.1785798  72.8441903  55.2583239  65.5110058  71.9762316
  55.9748886  65.3953918  72.7898922  54.3905877  64.8518663  72.0237506
  55.7402573  65.1935278  71.0515214  56.0719778  67.9576593  71.9699143
  56.9078057  67.9034057  71.0394106  56.0595627  68.9332886  72.8855427
  55.5566814  68.8645017  73.7587006  57.0291429  70.0186814  72.9309372
  57.5185152  70.0867695  71.9592753  56.4038028  71.4422789  73.1037113
  55.9795415  71.4891073  74.1070076  57.4062227  72.5470935  72.8444660
  58.0961764  72.5656519  73.6874628  57.9521558  72.4616157  71.9054753
  56.9615742  73.5428488  72.8502113  55.1278871  71.6450323  72.2686237
  55.4356990  71.7499950  71.2282735  54.4039056  70.8460541  72.4318004
  54.5549090  72.5332140  72.5320519  58.0639918  69.7491074  74.1177900
  57.7710531  69.9114904  75.2833562  59.2399803  69.3164806  73.7254698
  59.2872721  69.1585438  72.7290981  60.3690922  69.2046823  74.6151908
  60.0425803  68.9311212  75.6192930  61.2317262  68.1026717  74.0896966
  60.5733874  67.2361187  74.0335363  61.6795618  68.2675207  73.1097864
  62.4763324  67.7392842  74.9111319  63.1904748  68.5620569  74.9083579
  62.2265974  67.3966027  75.9160577  63.2523210  66.5027193  74.3940487
  62.5769703  65.6488427  74.3407001  63.4449890  66.7507686  73.3495614
  64.4589593  66.1937572  75.3453659  65.0696442  67.0841292  75.4927115
  64.1281300  66.0382332  76.3716180  65.2223753  65.0197113  74.7865296
  66.0171307  65.3493073  74.2570315  65.5468110  64.3631719  75.4817810
  64.6326351  64.4773706  74.1716783  61.1055446  70.6300036  74.7295854
  61.8660343  70.8787306  73.8153249  60.9537744  71.3205278  75.8427467
  60.1920226  70.9440176  76.3872385  61.4132634  72.6604795  76.0793105
  62.2270961  72.8992518  75.3950444  60.3562899  73.6718644  75.6767669
  60.3573338  73.7634595  74.5911540  59.3664697  73.3397964  75.9896325
  60.7315418  75.0642406  76.2922631  60.6278256  75.0995880  77.3768739
  61.7287246  75.3039193  75.9244159  59.5773112  76.2147887  75.5996356
  58.2669315  75.9758009  76.8709340  57.7051783  75.0579077  76.6931046
  58.5673887  76.0110177  77.9176390  57.5560509  76.7743505  76.6599805
  62.0446101  72.9402450  77.4667749  61.4452741  72.7471750  78.5439334
  63.2081433  73.5861963  77.4958144  63.7024701  73.7693244  76.6336983
  63.8496029  74.1171045  78.7529175  64.0280439  73.3632387  79.5207574
  65.1945169  74.8385353  78.3476289  65.2169158  75.1450680  77.3020888
  65.3301721  75.7530482  78.9259755  66.4599545  74.0169630  78.6332455
  66.5642654  73.7476865  79.6845848  66.5567381  72.7141235  77.7862937
  66.8184315  72.9553570  76.7555552  67.3870998  72.1670163  78.2320728
  65.6199919  72.1571998  77.7798537  67.6752181  74.9049293  78.2099380
  67.6960248  75.6868998  78.9683801  68.6371427  74.4030772  78.3133764
  67.5166608  75.4239240  77.2648211  62.8731471  75.1319134  79.3918950
  62.4208149  76.0882182  78.6910628  62.6634875  75.0855802  80.6977687
  63.0772910  74.3058337  81.1896254  61.6865428  75.9511336  81.3949662
  60.8995283  76.2238723  80.6911176  61.0329694  75.2064216  82.5358294
  60.1673669  75.6915438  82.9889018  60.5117448  74.3621816  82.0851380
  61.9359836  74.7188821  83.6704838  63.1007226  74.9486673  83.7564197
  61.3390318  73.8867204  84.5214013  61.8759649  73.6335989  85.3386934
  60.3509266  73.6816485  84.4801397  62.3601206  77.2374089  81.9251264
  61.7224252  77.8772560  82.7298812  63.4687768  77.7135239  81.3702805
  63.7888828  77.1140971  80.6230772  64.1829195  78.9916325  81.6054545
  63.4614558  79.7921459  81.7676191  65.1113624  78.8383387  82.8370587
  65.7139933  79.7459881  82.8588430  64.3066453  78.7831932  84.1691218
  63.7662503  77.8563509  84.3635997  65.0964933  78.9260124  84.9069218
  63.6218800  79.6287318  84.2311866  66.0869207  77.7503954  82.8559965
  66.8033283  77.9831925  82.0672908  66.6562181  77.7852791  83.7852287
  65.6009087  76.7973805  82.6492581  64.9804451  79.4428295  80.3673511
  65.4063627  78.6296982  79.5312471  65.0555760  80.7133108  80.1959496
  64.7628831  81.2900306  80.9720303  65.5323170  81.3303871  78.9596588
  65.0013004  80.9038894  78.1074135  65.2063486  82.8545940  79.0490402
  65.6127078  83.4071620  78.2023468  63.6914501  83.2160573  79.0681168
  63.5673232  84.2944749  79.1673439  63.3074716  82.9536788  78.0821305
  63.1908183  82.6937574  79.8833534  65.7610660  83.5137744  80.1896013
  66.7189654  83.4581057  80.1502595  67.0580348  81.0273183  78.7239211
  67.3921972  80.7682080  77.6228873  67.9172685  81.1520665  79.7940763
  67.5738963  81.2885738  80.7345184  69.2788989  80.8628646  79.8043793
  69.7715275  81.1075593  78.8631893  69.9394609  81.7431974  80.8923802
  69.6169702  81.6372487  81.9276746  71.0193077  81.6204620  80.8148823
  69.7102142  82.7628438  80.5817771  69.6043679  79.3360810  80.1123379
  69.3926086  78.8842404  81.2729658  70.1231287  78.5729998  79.1126243
  70.2949744  78.9962464  77.7067490  70.9837436  79.8189445  77.5120213
  69.2977587  79.1374390  77.2883563  71.0867273  77.8524312  77.0482726
  72.1607265  78.0030523  77.1583407  70.8257734  77.7574722  75.9938634
  70.6933618  76.5913122  77.8646890  71.4416443  75.8075203  77.7495684
  69.7463696  76.2149909  77.4781545  70.5914182  77.1954431  79.2594661
  69.8033668  76.6144174  79.7396172  71.9387293  77.0056384  79.9652438
  72.8199481  77.8748021  79.9284057  72.2087538  75.8494913  80.5966719
  71.4800637  75.1495078  80.5862863  73.5068367  75.4490950  81.1171694
  74.0421544  76.2805813  81.5769014  73.3039955  74.4395584  82.2099546
  74.2823490  74.3792329  82.6863277  72.3304359  74.8028516  83.3305388
  72.2785748  74.1421619  84.1958269  72.5593252  75.8030857  83.6974278
  71.2875067  74.8797521  83.0200247  72.9464984  73.2036879  81.7833625
  72.9418923  72.5598477  82.4951121  74.4786766  74.8651657  80.0519273
  74.0763890  74.5735213  78.9309695  75.7821228  74.8669482  80.3089075
  76.5476896  75.2509149  81.4916695  76.6025067  74.4006857  82.1718212
  76.1105163  76.1402699  81.9462433  78.0052182  75.4316012  81.0964978
  78.7882964  75.1282245  81.7912461  78.2368319  76.4388464  80.7511542
  78.1555483  74.5011524  79.9516333  78.4209996  73.5411909  80.3943043
  78.9160114  74.8746278  79.2664925  76.7976369  74.4143917  79.2453222
  76.6622408  75.0163848  78.3471182  76.4560309  73.0417415  78.6932518
  76.7487532  72.8737086  77.4768031  76.0701225  72.0900437  79.5336880
  75.9777182  72.2717001  80.5229010  75.6406596  70.8001389  78.9849884
  76.3939663  70.4009996  78.3059546  75.3924763  69.7399862  80.0408806
  76.1812709  69.8183395  80.7883784  74.5478438  70.0487434  80.6573471
  75.4040698  68.3364750  79.4794929  75.0318383  67.6911166  80.2752626
  74.6015270  68.2724467  78.7449866  76.7203659  67.8610209  78.9601272
  77.8066077  68.1877815  79.5448214  76.7001837  66.9713010  77.9301310
  77.6058606  66.6038968  77.6785469  75.8329691  66.6744315  77.5055449
  74.4307317  70.9343673  78.0432803  74.3938498  70.3244534  76.9652665
  73.3775069  71.6139319  78.4829696  73.4444961  72.1823514  79.3149249
  72.0094052  71.6081489  77.8393065  71.6102070  70.5951499  77.7923501
  71.0054086  72.3568872  78.6878693  71.3954683  73.3467197  78.9258906
  70.1200642  72.3994923  78.0538976  70.5460929  71.7496308  80.0393813
  69.7599677  71.0143955  79.8663780  71.3918331  71.3200505  80.5772088
  69.9163294  72.7920104  80.9779741  69.6754709  73.9534538  80.7385030
  69.4919485  72.3273266  82.1345846  69.3408712  72.9924320  82.8796326
  69.5748551  71.3506784  82.3766915  72.0889652  72.2008677  76.3999123
  71.5490554  71.6256275  75.4282410  72.8557693  73.3302427  76.3282410
  73.4028774  73.6132225  77.1289240  73.1247459  74.0838915  75.1034345
  72.2354391  74.5411333  74.6698893  73.8856966  75.3989166  75.5485686
  73.0752771  76.0180646  75.9325765  74.5484762  75.1021104  76.3614697
  74.6138011  76.3414130  74.5214263  73.9745286  76.6392990  73.6901065
  74.8531452  77.7240626  75.2319722  73.9511768  78.1881647  75.6305590
  75.4647445  77.5490516  76.1165079  75.2448010  78.4296284  74.4995962
  75.8960964  75.7055706  74.0887413  76.6057700  75.5132724  74.8934547
  75.7858381  74.7911083  73.5062717  76.3564317  76.4178127  73.4042877
  73.8015310  73.1801760  74.0596265  73.3672991  73.3356313  72.9244369
  74.7474864  72.2606139  74.4299437  75.1117764  72.1528074  75.3652990
  75.3914841  71.3058011  73.4729000  75.7121018  71.8684393  72.5958752
  76.7001238  70.8158234  74.1325188  77.4142170  71.6396664  74.1306677
  76.4306278  70.5071114  75.1425024  77.4851250  69.6779946  73.4851590
  78.1963374  69.3788264  74.2546240  76.7163336  68.9568930  73.2078447
  78.2105998  70.0634504  72.2273636  78.4710584  71.2253564  71.9653087
  78.4040315  69.0505920  71.3613036  78.7580780  69.2856521  70.4455728
  78.2006206  68.0981759  71.6283122  74.4246193  70.1018917  73.2303066
  74.2796591  69.6708217  72.1178988  73.8036067  69.5418068  74.2443842
  74.1260278  69.8413898  75.1536079  72.8850097  68.3746135  74.1535543
  73.4678991  67.5163402  73.8212985  72.3649998  68.0671323  75.5518100
  71.6877797  68.8614739  75.8675891  71.8817431  67.0909105  75.5118974
  73.2562961  68.0469929  76.1795474  71.7954548  68.5379112  73.1152061
  71.5820399  67.7039059  72.3169209  71.0951644  69.7380988  73.0685230
  71.3932210  70.4916827  73.6709659  70.0619332  70.0914885  71.9741597
  69.3017834  69.3115075  72.0256182  69.3636713  71.4613063  72.3636021
  70.0626145  72.2172218  72.7235857  68.8754471  71.8532147  71.4713791
  68.1723868  71.2455479  73.3445254  68.3542393  70.5846511  74.6407195
  69.3005020  70.2023169  74.9925953  67.1674571  70.3490197  75.3881502
  67.2213437  69.9035803  76.3702362  65.9714988  70.8962381  75.0917840
  65.1302806  70.7435970  75.7505462  65.8756912  71.7048172  73.9420250
  64.9217856  72.1781798  73.7658747  66.8807516  71.7895808  73.0391720
  66.6281126  72.1145676  72.0399202  70.6568594  70.1125539  70.6086854
  70.0748702  69.5245374  69.7373490  71.8207324  70.7232775  70.4543212
  72.1722604  71.1750153  71.2861518  72.5070025  70.9543173  69.1828261
  71.8618785  71.4716539  68.4726558  73.7851659  71.7285957  69.2945099
  74.5143135  71.3780914  70.0258708  74.2590646  71.7382033  68.3129185
  73.5321122  73.2339392  69.5526682  72.8164528  73.6939357  68.8705671
  73.1545439  73.4161413  70.5585596  74.8512429  73.9901172  69.6225184
  75.6178989  73.3917387  70.1135284  75.1584590  74.1284443  68.5856983
  74.7143917  75.2885719  70.3239869  73.9304188  75.8610772  69.8295558
  74.4118101  74.9255779  71.3063156  76.0331698  75.9896857  70.4230059
  76.3192340  76.3551954  69.5257234  75.9884847  76.7485739  71.0877142
  76.7614482  75.4796642  70.9015972  72.8645679  69.5867801  68.4367162
  72.6344490  69.4788536  67.2126336  73.3943897  68.6429204  69.2550919
  73.5671182  68.9157183  70.2123229  73.5674529  67.2009785  68.9711508
  74.1437088  67.2290511  68.0461902  74.3942980  66.6040157  70.0628773
  75.1543950  67.3477238  70.3026768  73.7463955  66.5672602  70.9388341
  75.0815168  65.2530355  69.8481895  76.2180036  65.0230682  69.5405260
  74.3170369  64.2531990  70.1327162  74.7342730  63.3339919  70.1775864
  73.4412662  64.4192146  70.6075272  72.2513605  66.4869471  68.6510618
  72.1185777  65.7885342  67.6749055  71.1473125  66.7129465  69.4883648
  71.3080877  67.2322179  70.3400594  69.8528027  65.9711400  69.3760732
  70.0110534  64.9065283  69.2019798  69.0851720  66.0152321  70.7347917
  69.6398034  65.3298898  71.3771155  69.1364869  66.9495546  71.2932559
  67.5227465  65.5762749  70.6513887  66.9023165  66.4066993  70.3161947
  67.3257686  64.8499013  69.8635066  66.8614955  65.1141369  71.9538623
  67.2599905  65.4760067  73.1296927  65.8454670  64.3866322  71.8896603
  68.8879930  66.4274179  68.1887877  68.3518058  65.5405537  67.5299514
  68.9625392  67.7068526  67.7924473  69.3919233  68.3884265  68.4030546
  68.5490806  68.2704151  66.4819469  67.4932310  68.0000952  66.4434035
  68.8248150  69.7933946  66.5473849  69.7562157  70.0656883  67.0439792
  68.8127530  70.4304206  65.1893251  69.7080307  70.0690912  64.6831139
  67.9054260  70.1720791  64.6442459  68.8905257  71.5134881  65.2863320
  67.6801466  70.3088156  67.3502476  67.6546603  69.8736960  68.3497242
  67.6843401  71.3974933  67.4010742  66.7952932  70.0086051  66.7888306
  69.3314287  67.5235857  65.3983367  68.7428202  66.9818409  64.4426492
  70.6560637  67.3527405  65.4514304  71.1104178  67.8138288  66.2269728
  71.3462817  66.7099397  64.2888577  70.9420986  67.1266306  63.3669544
  72.3975943  67.0005062  64.3004290  71.3863161  65.1916651  64.1231902
  71.4438253  64.7429472  63.0474528  71.0133864  64.4196796  65.1947044
  70.8243048  64.8884403  66.0690021  70.4673199  63.0823017  65.1585670
  71.1467439  62.4816782  64.5521584  70.3846310  62.4487505  66.6148112
  69.8286257  63.1699959  67.2135902  69.5267292  61.1463050  66.7295729
  69.5710022  60.6791850  67.7135372  68.4965169  61.2847213  66.4004020
  69.9727693  60.3765471  66.0999365  71.6484060  62.2448469  67.3595755
  72.2551248  61.5533598  66.7744927  71.9966324  63.2774789  67.3962162
  71.4264631  61.8761571  68.3614734  69.0707501  63.0734729  64.5320880
  68.7713696  62.2940565  63.6529143  68.2056085  63.8854189  65.0395480
  68.5022758  64.6445864  65.6354416  66.7807393  63.8510937  64.5787286
  66.5364284  62.7968290  64.7113942  65.9651040  64.6927535  65.5462563
  66.4959376  65.6255363  65.7387581  65.0088153  64.9121862  65.0728957
  65.5673397  64.0476847  66.8961432  66.4709220  63.6918732  67.3926735
  64.8964979  64.9138307  67.8657407  65.4918971  65.6863827  68.3504314
  64.0250168  65.3272037  67.3583390  64.6525113  64.2792838  68.7186450
  64.5725834  62.9222227  66.6325960  63.7768232  63.3051278  65.9933760
  65.1226205  62.1897728  66.0432426  64.2091081  62.4380766  67.5398238
  66.5396229  64.3199327  63.1283153  65.7096325  63.7788062  62.4158302
  67.4284165  65.1923902  62.7066840  68.1418630  65.4719116  63.3653052
  67.5570460  65.6384569  61.2817928  66.5329972  65.8909354  61.0070261
  68.5858075  66.8102121  61.1543431  69.3900544  66.6432373  61.8708034
  69.0424546  66.7816150  60.1652164  67.9146631  68.1687883  61.3968322
  67.0592432  68.2826004  60.7317145  67.4090019  68.2867342  62.3555713
  68.9293963  69.3460086  61.0748592  68.6269133  70.3344712  61.4216731
  69.9252302  69.0470274  61.4042191  69.0247221  69.4382662  59.5850379
  68.7536661  68.5871371  59.1144924  69.5907518  70.4522973  58.9235205
  69.9428717  71.6022348  59.4364816  70.1367338  71.7903782  60.4095867
  70.4682181  72.1613063  58.7792737  69.7741186  70.2469459  57.5668372
  69.2595729  69.5155825  57.0982775  70.1835506  71.0329373  57.0812602
  67.9310717  64.5179018  60.3216412  67.2967939  64.3223106  59.2817039
  68.7470754  63.5397175  60.7226828  69.2549313  63.7201931  61.5762255
  68.9307808  62.2458959  59.9349113  69.1635412  62.4243581  58.8855005
  70.1763019  61.5780559  60.4550629  70.0431014  61.4610718  61.5305751
  70.4093230  60.6323432  59.9661277  71.3771766  62.4836329  60.3280186
  71.3565958  63.2731416  61.0787638  72.1572659  61.8226431  60.7060004
  71.8162161  62.8971157  58.9802051  71.8532126  62.0130481  58.3432454
  71.1114781  63.5668465  58.4855880  73.2345069  63.5742885  59.0050282
  73.5443650  63.8387074  57.9933056  73.1261238  64.4274739  59.6750824
  74.2243592  62.6766318  59.5147987  75.0935780  63.1830215  59.6033323
  74.0089538  62.3230197  60.4356353  74.3346748  61.8423447  58.9551126
  67.7166148  61.3302066  59.9581284  67.4884053  60.7239828  58.8905615
  66.9903806  61.1551332  61.0726629  67.3370719  61.5801119  61.9211836
  65.9322943  60.1073219  61.1837431  66.4268395  59.1649536  60.9475566
  65.4817163  59.9099887  62.6605650  64.7273395  59.1279087  62.7407684
  66.7170387  59.3833153  63.4812645  67.4381490  60.1941659  63.5804479
  66.4969539  59.0331191  64.4899841  67.0663094  58.6035338  62.8028407
  65.0174047  61.0798810  63.2553219  65.4741857  61.8341739  62.8762028
  64.6488189  60.4092678  60.3166448  64.2790225  61.5641908  60.3173101
  64.0629259  59.3977442  59.5797870  64.6018111  58.5451385  59.5343979
  62.7605765  59.3475890  58.9564151  62.1268437  59.8228559  59.7052176
  62.6764909  60.0180110  57.6045442  63.0315659  59.4737507  56.7302197
  61.6258551  59.8949169  57.3413670  63.0946697  61.5451451  57.5275698
  62.7983917  61.9988087  58.4743383  64.1674095  61.5921754  57.3394913
  62.2937411  62.2748908  56.3948308  62.0473094  61.6148509  55.5631405
  61.3328366  62.5486602  56.8311538  63.1271022  63.4126053  55.8901519
  64.1271732  63.3508136  56.0183423  62.6861785  64.5286199  55.2528226
  61.4036926  64.6637834  54.9551553  60.7138209  63.9497777  55.1407862
  61.0050778  65.4613286  54.4792205  63.4745116  65.5703635  55.0997373
  64.4791180  65.5295597  55.2005792  63.0046398  66.4290447  54.8492239
  62.1440981  57.9426634  58.9179365  62.3565807  57.2772354  57.8829173
  61.4080787  57.5131954  59.9358449  61.0315846  58.1864836  60.5878857
  61.0219357  56.1102738  60.1900959  60.7115005  55.6005791  59.2781506
  62.2396233  55.4288859  60.8469069  63.1800571  55.7284664  60.3848986
  62.2901099  55.7842368  61.8763246  62.1268597  53.9093529  60.7764034
  61.2917022  53.1965623  61.6257117  61.3919171  51.9281968  61.3305305
  60.8232704  51.1055764  61.7374245  62.1981952  51.8164769  60.2733246
  62.2774294  50.9582536  59.7462423  62.6908282  53.0730478  59.8347631
  63.3256149  53.3863111  59.0199000  59.8063510  56.0493281  61.0974495
  59.7224236  56.7934175  62.0730131  58.9147349  55.1213556  60.9538232
  59.0236011  54.4379454  60.2180035  57.6890167  54.9885306  61.7782270
  57.2798570  55.9975754  61.7303632  56.6860544  54.0067821  61.1243849
  57.2430013  53.0952190  60.9067205  55.4704049  53.6462277  61.9793978
  55.7613383  53.2056354  62.9327373  54.8578896  54.4832991  62.3129939
  54.8073206  52.9559904  61.4573971  56.1102156  54.5183407  59.7853671
  55.5104981  55.4220276  59.8917902  56.8304182  54.7287539  58.9935689
  55.4948226  53.7264852  59.3599185  57.9887427  54.6086585  63.2596856
  57.1069767  54.8886961  64.0775827  59.0944220  53.9080834  63.5806573
  59.7120338  53.6698697  62.8171968  59.5198434  53.4901944  64.9828860
  58.7454742  53.5260130  65.7484383  60.1006126  52.0050728  64.9430112
  60.9106179  52.0361734  64.2144303  60.4623139  51.7082851  65.9272887
  59.0949570  50.9706854  64.5190906  59.2717211  50.2860586  63.5391041
  58.0413612  50.7706137  65.2789670  57.4324784  50.0058588  65.0239594
  57.8330381  51.3612992  66.0704328  60.5417974  54.4287747  65.5870408
  61.0538869  54.0704469  66.6344469  60.8188524  55.6229135  65.0392944
  60.2832585  55.9665973  64.2546470  61.6717554  56.6906202  65.5930398
  61.9758140  56.4672852  66.6158271  62.9564523  56.7836490  64.6824980
  62.6130982  57.2176202  63.7437952  63.8898483  57.8524138  65.3639021
  63.6556664  57.9425719  66.4245864  64.9150832  57.5014505  65.2448041
  63.7334358  58.8758334  65.0202998  63.7230012  55.5040393  64.4986969
  63.1459322  54.7576645  63.9521212  64.6224430  55.7161054  63.9203878
  64.2007188  54.8322729  65.8059237  63.3819656  54.4383531  66.4087401
  64.8383299  53.9869592  65.5482306  64.9004098  55.4872721  66.3252352
  60.8444732  58.0091500  65.5984545  60.3037514  58.5066930  64.6080158
  60.6053026  58.5838510  66.8131105  61.1402906  58.2969863  67.6206756
  59.7125441  59.6918626  67.1317678  58.7072116  59.2830165  67.0257891
  60.1094066  60.1668288  68.5414774  60.1835940  59.3269711  69.2333857
  61.0879253  60.6355524  68.4379048  59.2677033  61.3131259  69.1326573
  59.3458605  62.2446493  68.5711695  57.7582211  60.9431170  69.1487185
  57.5982329  60.0844963  69.8022383  57.1985636  61.7362901  69.6443856
  57.5647868  60.8215501  68.0832587  59.8023633  61.4500923  70.5917324
  59.7720020  60.5095371  71.1424048  60.8322857  61.8002787  70.5319390
  59.2049182  62.1678177  71.1544647  59.9202092  60.8974650  66.1455654
  61.0344557  61.4348403  66.0692861  58.9532745  61.2375069  65.2944892
  58.0664189  60.7619888  65.3783212  59.1091810  61.9440424  64.0012832
  59.9986333  61.5621681  63.5001688  57.8812572  61.7234019  63.0692811
  58.0210592  60.7098775  62.6919423  56.9740071  61.7169551  63.6730796
  57.7340702  62.6454509  61.8610350  57.8098538  63.6501111  62.2763913
  58.8728996  62.3900179  60.8636136  59.7917079  62.8069749  61.2751962
  59.0122281  61.3321801  60.6373181  58.6780995  62.8334858  59.8871413
  56.3832738  62.5013015  61.1122280  56.3080886  63.1741348  60.2585920
  56.2161238  61.4416721  60.9182709  55.5575468  62.8054820  61.7555950
  59.2559851  63.4198750  64.4395659  58.4141248  63.9814989  65.0868825
  60.4486288  63.8638500  64.1799964  61.0505452  63.2775842  63.6199821
  60.8128976  65.2919039  64.2822280  60.5852787  65.8253241  65.2051676
  62.3024252  65.3817457  64.0862079  62.8153176  64.8722849  64.9004635
  62.4492005  64.8994073  63.1192236  62.8887707  66.7844348  64.1245914
  62.8892397  67.4911452  65.3365213  62.3992783  67.0434709  66.1892965
  63.5757886  68.7543111  65.3394427  63.7336003  69.2454698  66.2875058
  64.2380913  69.2280301  64.1568597  64.8562267  70.1066889  64.2694304
  64.1631663  68.4814427  62.9633726  64.5822082  68.8951198  62.0584858
  63.4443260  67.2808516  62.9403352  63.3749143  66.6866524  62.0417200
  60.0362287  66.0789024  63.2013984  59.9705356  65.5977462  62.0624554
  59.6053223  67.2725030  63.5374971  59.5878323  67.5088547  64.5192766
  59.0943335  68.2406166  62.5327292  59.2515239  67.8612323  61.5227452
  57.5532047  68.3450195  62.7336765  57.4745467  68.7025019  63.7602428
  57.1351417  69.1553728  62.1356732  56.7306459  67.0908316  62.5971673
  55.8784247  67.4118397  61.9974683  57.3126088  66.3441448  62.0585293
  55.9125525  66.2540895  63.9616744  55.3253257  67.5891837  65.0116216
  54.6317642  67.2190110  65.7669212  56.1662297  67.9701123  65.5919344
  54.7382958  68.2887487  64.4160850  59.6814016  69.6234478  62.5042535
  59.4765990  70.3809317  61.6235510  60.2715082  70.0489583  63.6576589
  60.1179534  69.4428973  64.4509256  61.0059762  71.3240329  63.9277712
  61.8043090  71.4942636  63.2051542  60.2449612  72.0616569  63.6742897
  61.5702817  71.5746660  65.3183625  61.5132203  70.7217547  66.2004375
  62.1330904  72.7563049  65.5522552  62.2137087  73.3752539  64.7585753
  62.8328420  73.2211678  66.7904624  62.2651140  72.8518280  67.6446773
  64.2422437  72.6190607  66.7620593  64.6357448  72.6266413  67.7785968
  64.1001509  71.5756252  66.4813157  65.2679989  73.2256217  65.8846654
  66.1700287  74.1870349  66.3584405  66.2112627  74.3952902  67.4171036
  67.0191841  74.8892775  65.5069422  67.7567843  75.5707391  65.9054908
  67.0153338  74.6446141  64.1219512  67.8873593  75.3533304  63.3270041
  68.1994530  76.1328578  63.7928458  66.1184879  73.7498309  63.5722644
  66.0892138  73.5382677  62.5137409  65.3624069  72.9681942  64.4969593
  64.5294155  72.4369542  64.0610483  62.9376713  74.7340768  66.9754874
  62.7433740  75.4493272  65.9991399  63.1466068  75.2985529  68.1391982
  63.3687550  74.6862507  68.9109632  63.0875397  76.7751842  68.3326433
  63.5365292  77.2464153  67.4579505  61.6539095  77.2889301  68.3788025
  61.2931707  77.1211272  67.3634668  61.0703166  76.7147567  69.0980933
  61.6536360  78.6633143  68.7199597  61.2898239  78.6321060  69.6078689
  63.9517435  77.2235757  69.5542921  64.2368737  76.4544302  70.4831350
  64.3825984  78.4843784  69.5159950  64.0030358  79.0738996  68.7893492
  65.3041394  79.0663251  70.5229732  65.5061455  78.3725039  71.3394478
  66.7344871  79.4507803  70.0785629  67.3232319  79.6620505  70.9711268
  67.4595027  78.3807876  69.2507427  66.9527482  78.2928781  68.2899093
  68.4789233  78.7068895  69.0471347  67.6459862  77.4710975  69.8205116
  66.6935266  80.7094042  69.3784164  66.6757089  80.5794681  68.4273627
  64.6496038  80.2414190  71.2055753  65.2880707  80.9127847  72.0428501
  63.3908829  80.6165620  70.9624060  62.8680302  79.9434113  70.4215602
  62.6730739  81.9238382  71.1719749  63.4126515  82.6165205  71.5738681
  62.2926908  82.4071569  69.7753587  61.6547641  81.6988025  69.2475391
  61.7580155  83.3343657  69.9814825  63.6091105  82.7306147  68.9568178
  64.2310830  83.3033321  69.6432535  64.0306329  81.7854065  68.6127721
  63.3751067  83.4811325  67.6189186  62.6821211  82.8922301  67.0168107
  62.9608726  84.4845064  67.7138767  64.7292323  83.4648579  66.8594213
  65.3760228  84.2806808  67.1829054  65.2686158  82.5618782  67.1465923
  64.5809589  83.5333884  65.4263931  65.4834631  83.8443520  65.0954297
  64.2117136  82.6802352  65.0320563  63.9467292  84.2936100  65.2260514
  61.4319807  81.9120220  72.0979193  60.3335463  81.6957986  71.6097437
  61.5909486  82.0876593  73.4433763  60.4065929  82.4484553  74.3692716
  59.9382386  81.5071475  74.6537044  59.5361231  83.0265906  74.0619757
  60.9787728  82.9737516  75.6909489  61.2565904  82.1369882  76.3316106
  60.5268257  83.8054418  76.2311120  62.3700416  83.4728750  75.2371561
  63.1056962  83.4724543  76.0417573  62.0869206  84.4439749  74.8315487
  62.8020825  82.4027469  74.1620246  63.5271525  82.8286755  73.4683408
  63.4908771  81.1794503  74.8611330  64.4324740  81.4377573  75.5998500
  63.0476568  79.9670592  74.5771812  62.2500377  79.8388567  73.9704498
  63.5736456  78.7792068  75.2503472  64.5326316  79.0084514  75.7159927
  62.5672046  78.1844361  76.2711146  61.6649075  77.9721566  75.6988879
  63.0409883  77.2577987  76.5963117  62.2327533  79.0709795  77.4505866
  62.7063470  78.6800144  78.3506873  62.5691631  80.0875588  77.2451845
  60.7164539  79.1278040  77.8640516  59.9684813  80.0881502  77.6303377
  60.3061208  78.1151977  78.6015529  59.3777131  78.0163644  78.9863283
  60.9573146  77.4062753  78.9079917  63.9497479  77.7120307  74.2381535
  63.3220843  77.5349865  73.2214811  65.0147905  76.9558990  74.5249618
  65.4910100  77.1858370  75.3855479  65.3990360  75.8545247  73.7240480
  65.4424809  76.1441649  72.6742999  66.7067031  75.2131049  74.1735325
  66.5371866  74.6252369  75.0748651  66.9425130  74.4778496  73.4038395
  67.9278987  76.1260815  74.4366181  67.7211755  76.8883133  75.1874105
  69.2203545  75.3527273  74.7750175  70.0133415  76.0599234  75.0209915
  68.9066788  74.6992012  75.5898796  69.5024064  74.6314958  74.0077763
  68.1354449  77.0199957  73.1737202  68.9877997  77.6465325  73.4351389
  68.1870527  76.4949217  72.2198061  67.3162131  77.7385366  73.1505421
  64.3315855  74.7933747  73.5618986  63.8393343  74.2610438  74.6178240
  64.0074305  74.3866438  72.3467103  64.2139102  74.9445825  71.5308117
  62.8305932  73.5577547  72.1813266  62.7612652  72.9397648  73.0763407
  61.6329394  74.5212787  72.0954901  61.6200016  75.0878834  73.0271369
  61.6630564  75.2015877  71.2442119  60.6684559  74.0160716  72.0590164
  62.9391757  72.6767691  70.9140344  63.5290555  73.0031227  69.9299140
  62.2370501  71.4879872  70.9637855  61.8910027  71.3161241  71.8965793
  62.0240775  70.4531763  69.9108439  62.2526662  70.8445396  68.9198429
  62.7917444  69.1300163  70.1969058  62.3127174  68.8475587  71.1338587
  62.4032482  68.0957828  69.1306930  62.6174292  68.4490920  68.1212990
  63.0786968  67.2468119  69.2411316  61.4325701  67.6067183  69.2051834
  64.3364230  69.3245428  70.2637972  64.8001313  69.1625500  69.2910640
  64.5938401  70.3475966  70.5396510  64.9731853  68.4200219  71.3196138
  64.5673146  67.4100012  71.2558464  66.0193187  68.3572974  71.0179573
  64.8637435  68.8775211  72.3033083  60.5162454  70.1822171  69.8402943
  59.8412417  70.1454420  70.8600132  60.0336240  70.0173516  68.5842823
  60.6677590  70.0086805  67.7971111  58.6699179  69.6932210  68.2298674
  58.2025075  69.4803749  69.1907223  57.9193702  70.8724703  67.5655495
  58.4944542  71.5482640  66.9316456  56.5995099  70.4707198  66.8159312
  55.9268926  69.8593234  67.4176291  56.1340013  71.4391574  66.6290536
  56.7409471  69.9837171  65.8519049  57.3923965  71.7725269  68.6822558
  58.2142424  72.1671778  69.2792264  56.9641930  72.6482021  68.1943125
  56.7351347  71.2897890  69.4053464  58.6093834  68.3503315  67.3830597
  59.2093894  68.3524612  66.2727591  57.9006572  67.3746463  67.9404989
  57.5745443  67.3834646  68.8966771  57.6346469  66.1266316  67.1818245
  57.8516550  66.1496985  66.1135148  58.3084357  64.9735493  68.0294818
  58.1955800  64.0153498  67.5214322  59.8257285  65.0916613  68.2236205
  60.0528396  65.5983633  69.1616837  60.2594744  64.0927966  68.2544875
  60.3480238  65.5912857  67.4076651  57.8410724  64.7731310  69.3453853
  57.1760190  64.0803227  69.3181508  56.2285850  65.7340433  67.4516895
  55.5035010  66.3795731  68.2202789  55.7685275  64.8114724  66.6021249
  56.3941702  64.5012079  65.8717277  54.4942891  64.1395418  66.6883262
  53.6821239  64.7796802  66.3436515  54.4537796  62.9121581  65.7812242
  53.4283397  62.6005937  65.5841086  54.8220912  63.2298476  64.8061816
  55.2837516  61.6586783  66.3061662  56.2956558  61.9810887  66.5517396
  54.8140229  61.2816667  67.2145870  55.3794595  60.4977635  65.3541563
  56.3706137  59.7514274  65.2475418  54.2467005  60.2322170  64.7252468
  54.2100482  59.4374526  64.1043119  53.3856669  60.6559641  65.0373822
  54.1364247  63.7235877  68.1148385  54.9865785  63.1777856  68.8516083
  52.9338566  63.9619234  68.5013704  52.3449598  64.1935288  67.7149300
  52.2805649  63.4867570  69.7229496  53.0008923  63.5197202  70.5400247
  50.9980758  64.2215431  70.0668816  51.1827059  65.2835092  70.2298068
  50.2535265  64.1687749  69.2725675  50.4013643  63.7421166  71.3473381
  49.2286453  62.9759939  71.4712576  48.6570899  62.5959384  70.6366683
  48.9895051  62.8548847  72.8146070  48.1407500  62.4149808  73.1430325
  49.7327056  63.7251119  73.5817750  49.8390825  63.9084709  74.9739820
  49.0449652  63.4642984  75.5562135  50.8246039  64.7402225  75.5018131
  50.9077478  64.9373621  76.5604316  51.7975455  65.2893632  74.6437745
  52.4353055  66.0000614  75.1482815  51.7854545  65.0286969  73.2704024
  52.3975079  65.5403598  72.5427791  50.7746525  64.2011426  72.6941020
  51.9259822  61.9640423  69.5349071  51.0869551  61.6191033  68.7439376
  52.6136409  61.1486661  70.3697898  53.2075820  61.5571362  71.0772749
  52.1668687  59.6935775  70.4201960  51.8909076  59.3181147  69.4345936
  53.2511152  58.7850939  70.9388839  53.4672231  59.1483882  71.9429938
  52.9238432  57.7473822  71.0067617  54.7437866  59.0464688  70.0034582
  55.0673885  60.2915497  70.3644738  50.9245728  59.5696652  71.2929707
  50.9598872  60.0539368  72.4364333  49.8355043  58.8581465  70.8520478
  49.8102642  58.6071323  69.8741614  48.6142185  58.7186716  71.6692312
  48.5387566  59.5278861  72.3952832  47.4508116  58.6639620  70.7248387
  47.5706465  57.9119672  69.9456273  46.5873111  58.3732129  71.3237202
  47.1957362  59.9827640  70.0594261  48.1186104  60.2855374  69.5656930
  46.4651671  59.7289075  69.2910365  46.4596330  61.0481238  70.8606080
  45.7732570  60.6661575  71.8455753  46.4377893  62.2312220  70.4007518
  48.5333163  57.5015430  72.5823768  48.0120254  56.4391407  72.3619335
  49.2586868  57.7015300  73.7304150  49.8339850  58.5312814  73.7609063
  49.6243184  56.6302179  74.6282606  48.6930825  56.1214778  74.8761038
  50.2915670  55.9064841  74.1607248  50.3961177  57.1371078  75.9190784
  50.0437502  58.1675182  76.4691997  51.4308709  56.4024058  76.2140916
  51.5708809  55.6007031  75.6160323  52.3912345  56.6016139  77.2542055
  52.5995081  57.6667754  77.3583448  51.8615907  56.1377316  78.5797985
  52.5937760  56.3324865  79.3637252  50.9690671  56.7405620  78.7486631
  51.4845819  54.7845607  78.6500754  52.1749792  54.1737575  78.3810939
  53.6386907  55.7968657  76.9429539  53.6367349  54.8356935  76.1398087
  54.6818111  56.1185480  77.7349300  54.6772661  56.8691409  78.4103134
  55.8946020  55.3217886  77.7462718  56.2337163  55.2219523  76.7143197
  57.0359829  55.8652216  78.5192604  57.9307033  55.2818482  78.3008620
  57.1546659  56.9175661  78.2586146  56.7500733  55.6948234  79.8576887
  56.0605819  56.3285264  80.0687412  55.6412389  53.8117701  78.1632181
  54.8187110  53.4003452  78.9540699  56.4543675  52.9934854  77.5346570
  57.0991943  53.4080257  76.8769916  56.6464934  51.5705334  77.8299437
  55.7735436  50.9665136  77.5814025  57.7582179  50.9612982  76.8957623
  57.3789628  51.2171097  75.9071476  58.7340067  51.4264895  77.0355846
  58.0230180  49.4288678  77.1171103  58.4897907  49.2760205  78.0906574
  56.8110500  48.4727949  76.9835878  57.2310473  47.4671274  76.9566042
  56.2450653  48.4800044  77.9147674  56.2176264  48.8496305  76.1509123
  59.0423224  48.9477983  76.0488727  59.8558813  49.6718232  76.0055621
  59.3645526  47.9305622  76.2727909  58.5482727  49.0902333  75.0881145
  56.9040622  51.2458418  79.3524255  56.4462958  50.2643344  79.9191522
  57.5328531  52.1509592  80.1033725  57.8862836  52.9668843  79.6234359
  57.6237505  52.1690469  81.5488221  58.1191016  51.2485887  81.8560842
  58.5831083  53.2587775  82.0285249  59.5070287  52.8691093  81.5989590
  58.3607532  54.2177770  81.5600121  58.6912001  53.3099463  83.4939494
  59.8167692  52.7363245  84.1378889  60.5763306  52.2205264  83.5684754
  59.9783470  52.8291259  85.5318783  60.8121556  52.2816479  85.9457673
  59.0556049  53.5155440  86.3378630  59.2477335  53.5848879  87.6675065
  58.9935890  54.4428837  88.0165149  58.0870902  54.3591511  85.6275473
  57.5586389  55.1368821  86.1568702  57.8344016  54.1755533  84.2072367
  57.0203666  54.7250343  83.7584911  56.3173532  52.1619074  82.3206804
  56.0132818  51.3668436  83.2211041  55.4815251  53.1567441  81.9209399
  55.9055467  53.8237892  81.2923841  54.1936477  53.2896172  82.5541639
  54.4198106  53.4158585  83.6126961  53.5030209  54.5497367  82.0321959
  54.1303118  55.4352577  82.1318790  53.3661477  54.3546159  80.9683737
  52.2256438  54.8752396  82.6841963  52.0417675  55.8960690  83.6368656
  50.7396733  56.0846827  83.6997985  50.3101560  56.8082340  84.3763172
  50.0930746  55.1850455  82.9209616  49.0888165  55.1117605  82.8376013
  51.0129979  54.4315257  82.1991459  50.8838270  53.7222906  81.3950007
  53.3919579  52.0116221  82.4008707  52.8694866  51.3959001  83.3319536
  53.3727359  51.4844942  81.1411137  53.9498797  51.9964776  80.4892678
  52.7520360  50.1521882  80.7852496  51.6621365  50.1824511  80.7863487
  53.0974069  49.8915250  79.3030702  54.0884455  50.2680652  79.0513745
  53.0444683  48.8047647  79.2474232  52.1399129  50.5312107  78.3823631
  50.8629007  50.0673363  77.9985230  50.3962683  50.8518310  76.9945378
  49.5017138  50.7697898  76.3951995  51.3769238  51.7615323  76.7057948
  51.2659202  52.5128612  76.0387506  52.4679121  51.5784308  77.5244916
  53.4512623  52.0114216  77.4138604  53.2150117  49.0510818  81.7921752
  52.3293055  48.4772558  82.4353775  54.5042261  48.7630828  81.9749121
  55.2287590  49.2194566  81.4398309  55.0743220  47.6399343  82.5873084
  54.4112420  46.7912372  82.4148438  56.4130782  47.3679091  81.9339828
  56.8809760  48.3522605  81.9278952  56.9006861  46.6482375  82.5908787
  56.4655827  46.8127864  80.4775697  55.9112724  47.4122134  79.7561292
  57.9783388  46.7288246  80.0899700  58.5555405  46.0170575  80.6796316
  58.0710398  46.4663201  79.0363482  58.4592885  47.6935350  80.2482049
  55.7759257  45.4141018  80.3878668  54.7801269  45.3589257  80.8256846
  55.5181870  45.1231250  79.3702636  56.4461361  44.6966780  80.8622792
  55.2462297  47.7887480  84.1227471  55.2616920  46.7726636  84.8533794
  55.3922809  49.0010848  84.5924529  55.2855277  49.7327198  83.9040525
  55.7994581  49.2782046  85.9461232  55.6745369  48.4257891  86.6149007
  57.3084379  49.6144237  86.0320620  57.4320036  50.6687428  85.7867218
  57.5642638  49.3208076  87.0503590  58.1837649  48.8261188  85.0329249
  58.4232292  47.3808818  85.0066212  59.3216054  47.1519426  84.0122530
  59.8243965  46.2055354  83.8765339  59.6198964  48.3720764  83.4430756
  60.4074537  48.5028839  82.8241104  58.8716956  49.3898306  84.0236235
  58.9571175  50.4529474  83.8592255  55.0885033  50.4520853  86.6054573
  55.4648927  50.7421244  87.7366479  54.0865131  51.0965567  86.0430380
  53.8096243  50.9020629  85.0912929  53.1355743  51.9385979  86.8133100
  53.4995656  51.9176390  87.8407870  53.1465410  53.4353675  86.3619771
  52.8849256  53.5018297  85.3066861  52.0514041  54.3141554  87.0472807
  52.4239423  55.3371299  86.9999889  51.1254043  54.3662415  86.4749065
  51.8577761  54.0170198  88.0782180  54.5247602  54.0144496  86.5428435
  55.1858751  53.4177516  85.9146550  54.5946378  54.9971399  86.0765101
  55.1497752  54.1859745  87.9709882  55.8635485  53.3985689  88.2125105
  55.7204775  55.1073180  87.8505929  54.3588853  54.1910523  88.7214717
  51.6958314  51.3545694  86.7790020  51.1560908  51.1400476  87.8582103
  51.0523862  51.1272509  85.6150190  51.4311464  51.4846159  84.7494556
  49.8261451  50.3112833  85.6259568  49.2231883  50.4136541  86.5282335
  48.9456368  50.7133034  84.3977398  47.9164599  50.3864469  84.5453635
  48.8216443  52.2622583  84.3456672  48.5203715  52.7304141  85.2829472
  49.7421674  52.6643813  83.9218637  48.0879049  52.5388742  83.5892379
  49.1715873  50.0035627  83.0713721  50.2378808  50.0830652  82.8582935
  48.8112326  49.0016662  83.3050594  48.5320144  50.5755135  81.7683506
  48.3082602  49.7959833  81.0406882  47.5947757  51.1105536  81.9267733
  49.1507368  51.3794450  81.3706298  49.9984423  48.7519812  85.6210945
  49.1196807  48.0334910  86.1095646  51.1664779  48.2193090  85.2013575
  51.8620503  48.9011619  84.9330543  51.6548342  46.7844483  85.4373934
  52.6044034  46.6683575  84.9162002  51.8953578  46.3611023  86.9206097
  51.0198266  46.6111905  87.5189592  52.2361328  45.3273734  86.9772047
  52.9888313  47.1605276  87.4840969  53.8750142  46.9248353  86.8945395
  52.8173782  48.2263207  87.3343303  53.2077521  46.8450577  88.9114824
  53.1645341  45.6496340  89.2879057  53.5424216  47.7692909  89.6830979
  50.8318712  45.8194871  84.4952244  50.2624683  44.7921903  84.8447424
  50.8467367  46.1925397  83.1998697  51.4548480  46.9516396  82.9283333
  49.9607146  45.5982954  82.1321199  49.0819858  45.4635786  82.7615960
  49.6556007  46.4565584  80.8865048  49.4668650  47.4235915  81.3530739
  50.9152812  46.6443755  79.9741327  50.6513541  47.4484095  79.2876578
  51.7075781  46.9292184  80.6654540  51.0703528  45.6985264  79.4551998
  48.5782545  45.9651654  80.0511592  47.7586345  46.1841126  80.5011639
  50.3373441  44.2130787  81.7336493  51.5199984  43.9614954  81.4069249
  49.3494013  43.2961190  81.7368047  48.5021656  43.5273397  82.2361119
  49.5163791  41.8558316  81.3758621  50.5079270  41.4737346  81.6215297
  48.5309904  40.9494646  82.1707943  47.5340632  41.3673532  82.0306825
  48.4661860  39.9539049  81.7324676  48.8097105  40.9384596  83.6838253
  49.5350840  40.1423725  83.8504405  49.2450985  41.9011584  83.9513949
  47.5322991  40.6343249  84.5481263  46.6775105  41.2945241  84.3978579
  47.1607485  39.6363502  84.3151164  47.7604998  40.7019406  86.0344632
  46.8830781  40.3472404  86.5756693  48.5234339  39.9522856  86.2467431
  48.1888480  42.0404378  86.5191664  49.0224509  42.3475314  86.0395032
  47.4595019  42.7367469  86.4561348  48.6467967  42.0118726  87.4185373
  49.3521398  41.6385926  79.8400093  48.4098268  40.9358075  79.4758690
  50.2512329  42.1418786  79.0431324  50.9711315  42.7055631  79.4711462
  50.2808410  41.8675761  77.6065366  49.4241223  42.3655464  77.1513304
  51.5048644  42.4373563  76.9589640  52.3941387  41.8562420  77.2035421
  51.4116841  42.0539494  75.9424732  51.7084926  43.9091642  76.7743696
  50.7377206  44.6360500  76.1277881  49.7838300  44.2306916  75.8233161
  50.8385675  46.0108176  75.9234917  49.9756244  46.5384538  75.5440627
  52.0149087  46.6671504  76.2976314  52.0646008  47.7189167  76.0599836
  53.0177599  45.9707230  77.0308629  53.8854225  46.4688894  77.4376354
  52.8798585  44.6019842  77.2359446  53.6838688  44.1341367  77.7845074
  50.2428557  40.3599326  77.1275164  50.9415897  39.5057179  77.6905777
  49.5248465  40.0473847  76.0627359  48.8846430  40.6821122  75.6067332
  49.8786341  38.8600581  75.2829533  49.8209818  38.1055246  76.0682427
  48.9079517  38.5547340  74.0879882  48.8515857  39.3536579  73.3491563
  49.1896413  37.6484115  73.5505474  47.5102653  38.4222129  74.6309300
  47.2103376  39.1818410  75.3537734  46.8757799  38.5310634  73.7525605
  47.2411446  37.0248539  75.2565903  47.3074253  36.0236286  74.5208656
  46.8843825  36.9083104  76.3695199  51.3403214  38.6670815  74.8392041
  52.0213318  39.6727227  74.4936599  51.9332730  37.3806470  74.8891795
  51.3375254  36.6521263  75.2559264  53.2900593  37.0152802  74.5769232
  53.9082223  37.6392925  75.2220877  53.5748783  35.4799791  74.8633405
  53.2356952  35.1910656  75.8585690  52.9526528  34.9034198  74.1791799
  55.0242357  34.9596510  74.6891371  55.0333398  33.9903321  75.1885929
  55.0468311  34.8372363  73.6058328  56.3345721  36.0604936  75.2125729
  55.9604935  36.2178877  76.9364987  55.5078823  35.3583111  77.4292706
  56.9022748  36.4732190  77.4240641  55.2268041  37.0055440  77.1107557
  53.6960562  37.3728027  73.1221441  54.6835371  37.9800455  72.9255817
  52.7917621  37.1555217  72.1438977  52.0559771  36.4755597  72.2702666
  52.9545278  37.6045463  70.7585662  53.8589564  37.1141174  70.3993095
  51.9492202  37.0055909  69.8058547  51.9491889  35.9397668  70.0331979
  50.5271655  37.5468707  70.1002314  49.7985616  37.0579399  69.4528797
  50.1916192  37.4136775  71.1285048  50.5112987  38.5818219  69.7583276
  52.2067520  37.3744527  68.3018460  51.3273936  36.9842923  67.7886973
  52.3342879  38.4524938  68.2068936  53.4340759  36.7123316  67.6507632
  53.2851916  35.8437363  67.0087097  53.9268475  37.5046398  67.0875421
  54.1277956  36.4548663  68.4500257  53.1136844  39.1370003  70.6204511
  53.9547688  39.6136383  69.8925588  52.3504082  39.8603465  71.3975229
  51.5834200  39.4770961  71.9300502  52.3592466  41.3540190  71.3776340
  52.2750423  41.6799735  70.3407284  51.1462136  41.9488065  72.0598932
  50.2560200  41.5935683  71.5403384  51.0370407  41.4458933  73.0208524
  50.9959633  43.4273334  72.3307918  49.9563563  43.5200044  72.6468224
  51.6418618  43.6352819  73.1836643  51.3051308  44.2813423  71.0794983
  52.3303109  44.2654749  70.7104670  50.7412701  43.8902213  70.2332322
  50.7939429  45.7164412  71.2580172  51.3357278  46.0906347  72.1259886
  51.1589527  46.2571544  70.3849479  49.3143418  45.8419401  71.5515404
  49.0973001  46.8277121  71.5560699  48.7597121  45.3841384  70.8416027
  49.0561810  45.5974576  72.4963082  53.6610723  41.9184290  72.0394991
  54.2287201  42.9312206  71.6828732  54.1368734  41.1621836  73.0491328
  53.6540741  40.3149401  73.3114691  55.4025787  41.4576639  73.8356819
  55.2996490  42.4641792  74.2404491  55.4462107  40.4891516  75.0998790
  54.4347629  40.2941543  75.4563203  55.8593039  39.5736511  74.6775939
  56.1928557  41.0494585  76.3014057  57.1490653  41.4434825  75.9593205
  55.5829774  42.2192706  77.0802721  55.3079108  43.0735186  76.4606514
  54.7312695  41.7132141  77.5340136  56.3487922  42.5748450  77.7694140
  56.3692464  39.9055776  77.2798284  56.7935267  38.9895694  76.8684792
  57.1501648  40.2577016  77.9542742  55.3958761  39.7030067  77.7261738
  56.5911047  41.3709948  72.9019709  57.4500617  42.2483566  72.8176017
  56.5935667  40.2458888  72.2198348  55.9044974  39.5724005  72.5232058
  57.4934051  39.8593116  71.1255762  58.4947346  39.8120346  71.5544538
  57.1549839  38.4108279  70.5381059  56.0745779  38.3950753  70.3904688
  57.8177196  38.0485584  69.1939184  57.2979183  38.7038750  68.4950939
  58.8864780  38.2426728  69.2792707  57.5797825  37.0047593  68.9854156
  57.3738090  37.3121593  71.6028720  57.1667069  37.7757722  72.5666893
  56.7028048  36.4686183  71.4435079  58.7906726  36.7236824  71.7811681
  59.0124595  36.0186276  70.9800381  59.5848773  37.4401817  71.5700338
  58.8788523  36.1770445  72.7210065  57.3497411  40.9358975  70.0037472
  58.4176509  41.3618800  69.5742108  56.1238773  41.3136798  69.5295748
  55.3897576  40.6419724  69.7017158  55.9341421  42.3357284  68.4837070
  56.5220255  42.0954957  67.5974902  54.4069452  42.4867580  68.1372670
  54.1169682  41.6862237  67.4564380  53.7832762  42.3130426  69.0140800
  53.9807563  43.8196829  67.5092001  54.6726882  44.3785300  66.6292676
  52.8198916  44.2135355  67.7858578  56.5845207  43.7541355  68.9460736
  57.2523796  44.4897245  68.2564351  56.4086113  44.1647685  70.2731115
  55.6482168  43.7694841  70.8080279  57.0550835  45.3407555  70.8918086
  56.8348473  46.2387302  70.3143257  56.4562517  45.6287683  72.2724273
  56.4597936  44.7088461  72.8573175  57.2149680  46.6604155  73.1284202
  58.2278537  46.2690462  73.2245427  57.2712703  47.6672806  72.7145873
  56.8244189  46.6432120  74.1460137  55.0399648  46.2514400  72.0956775
  55.1860349  47.2826019  71.7732964  54.3918424  45.7502878  71.3768599
  54.1859626  46.2069863  73.4192164  54.1449826  45.1510660  73.6859819
  54.5243493  46.7027845  74.3292645  53.1782992  46.4966760  73.1238378
  58.5464025  45.1438959  70.7401739  59.1346458  46.0652658  70.2349718
  59.1289404  44.0085846  71.1874845  58.4810070  43.2850033  71.4644637
  60.5839611  43.7014257  71.0090634  61.0934274  44.4919370  71.5593588
  60.8235731  42.3122741  71.5829675  60.2881110  42.2567294  72.5311263
  60.5336532  41.5405128  70.8698567  61.9084772  42.2969814  71.6769207
  61.0777061  43.8770092  69.5521803  62.1115521  44.5237812  69.3501667
  60.3135257  43.4259882  68.5816040  59.4298806  42.9772518  68.7743141
  60.5687272  43.5564774  67.1231371  61.5289489  43.1146276  66.8600324
  59.4480120  42.6466917  66.4933289  59.4671975  41.6365760  66.9030352
  58.5102124  43.0305710  66.8931146  59.3217545  42.5659808  64.9170971
  60.2773198  42.8098099  64.4522924  59.1353729  41.5248093  64.6519540
  58.2326076  43.4917940  64.2187827  58.4790130  44.5423770  64.3711137
  58.2948944  43.3585238  63.1382641  56.8217727  43.2713938  64.6224106
  56.4797417  43.8507468  65.3754736  56.0110467  42.4226016  64.0738149
  56.3164266  41.5787888  63.0881004  57.2614310  41.5659155  62.7319111
  55.6967736  40.8864448  62.6922040  54.8581427  42.3213750  64.6379272
  54.5409884  42.9783686  65.3358623  54.1371506  41.7186172  64.2660034
  60.5285469  44.9442406  66.6297258  61.4445344  45.3535900  65.9275194
  59.4741024  45.6532807  66.9625755  58.7870974  45.0842314  67.4363877
  59.2792003  47.0904645  66.6549700  59.4198925  47.2568975  65.5864347
  57.9342569  47.5408294  67.1358147  57.7784687  47.1908252  68.1564048
  57.9431462  48.6264155  67.0333755  56.8381237  47.1086244  66.1820722
  57.1066587  47.2107474  65.1299211  56.5771340  46.0744122  66.4065240
  55.6073477  47.9230336  66.3963318  55.5232728  49.1343875  66.3359414
  54.5578733  47.2877236  66.9482617  53.8169900  47.8102074  67.3939036
  54.5637839  46.2819271  67.0358824  60.3010447  48.0012773  67.3054060
  60.8207867  48.8866946  66.6378094  60.6676926  47.7071525  68.5523058
  60.3479494  46.8136565  68.8997209  61.8802643  48.2732072  69.1490016
  61.6908625  49.3432564  69.2338703  62.1363664  47.7458285  70.5716746
  62.3835909  46.7039036  70.3684270  63.3349177  48.3758183  71.3415892
  64.2800174  48.1670455  70.8409651  63.0982135  49.4381961  71.4003307
  63.3932125  47.9972226  72.3623208  61.0023842  47.8435854  71.3860038
  60.2868680  47.3220982  71.0165492  63.1952808  47.9488727  68.3730540
  63.8435242  48.9576469  68.1153079  63.5869788  46.6696959  68.1720308
  62.9459182  45.9268559  68.4067031  64.7622544  46.3442201  67.3997130
  65.6854720  46.6619973  67.8842951  64.8013974  44.7741346  67.3363384
  63.8926514  44.3014063  66.9618004  65.5097410  44.5168151  66.5489465
  64.9602750  44.3538543  68.3295113  64.7927527  46.9413466  65.9341746
  65.8460998  47.4274319  65.5403396  63.6186650  47.0860007  65.2206458
  62.8465602  46.6082470  65.6642239  63.4706272  47.7014394  63.8901278
  64.0014698  47.1220143  63.1342061  61.9998113  47.6677959  63.4921609
  61.6185343  46.6605204  63.6572966  61.3338956  48.4014721  63.9449872
  61.6983344  47.7660645  61.9850631  61.6638752  48.8151010  61.6930083
  62.4196054  47.2733827  61.3326285  60.2999012  47.2022423  61.5622307
  60.1995257  46.2124869  60.8704164  59.2288736  47.8461176  62.0152741
  58.3144508  47.4457300  61.8642413  59.3893745  48.6238221  62.6387556
  64.0294617  49.1521475  63.7770969  64.8020925  49.5172719  62.8400927
  63.6516337  49.9980797  64.7662449  63.1079913  49.6132378  65.5248744
  64.1276638  51.3782254  64.9679112  63.9687452  51.9874001  64.0774608
  63.5848729  51.7689586  65.8293441  65.6748925  51.4464927  65.1770283
  66.4381717  52.1934242  64.5540779  66.1528645  50.6971217  66.1993911
  65.5158552  50.1153912  66.7241605  67.5953072  50.7043859  66.5549306
  67.9049507  51.6825225  66.9224951  68.0235846  49.7424951  67.6585879
  67.6646447  48.7194493  67.5420015  69.1088580  49.8273680  67.7089898
  67.6613770  50.2033584  69.0734659  66.5940455  50.0627141  69.2447161
  68.0404273  49.4334577  69.7459916  67.9305148  51.8917226  69.5686589
  69.7220757  51.9826599  69.7764205  70.0837360  50.9586396  69.8640404
  70.1459925  52.4484801  68.8871646  69.9217588  52.5530438  70.6835918
  68.5092178  50.2533462  65.3779945  69.5519996  50.8539669  65.1649715
  68.1127185  49.1990626  64.6585611  67.3143746  48.6492926  64.9415647
  68.7960171  48.8106275  63.4184049  69.8250799  48.5113328  63.6155501
  67.8283180  47.7060136  62.7561620  67.6591334  46.8925723  63.4629758
  66.8120101  48.0806227  62.6348723  68.3616522  47.1371676  61.4355413
  69.6104061  47.1643310  61.3275522  67.5845842  46.5685036  60.6798022
  68.8491914  49.9548783  62.4160294  69.9846055  50.2256615  61.9024612
  67.7383571  50.6135347  62.1379792  66.8633687  50.2511391  62.4888832
  67.6470469  51.7905198  61.2882165  68.0031148  51.5037955  60.2994664
  66.1758278  52.1310263  61.0728109  65.7388757  51.4528966  60.3397093
  65.6969359  52.0498993  62.0482343  65.9466508  53.5409876  60.4991656
  65.8980671  53.8098350  59.1403408  66.1062303  53.0233642  58.4296533
  65.9764413  55.1359610  58.6413006  66.1659880  55.3166586  57.5934960
  65.8756726  56.2225597  59.5481275  66.0099020  57.5164419  59.1230435
  65.8703189  57.6623537  58.1847220  65.8177214  55.9281541  60.8897452
  65.7270456  56.8101704  61.5067218  65.8108623  54.5815331  61.3665246
  65.5698020  54.3668160  62.3968646  68.6184549  52.9606835  61.7890455
  69.3461544  53.6156277  61.0173490  68.6246871  53.1931357  63.0745618
  67.9950614  52.7075775  63.6983836  69.5934736  54.1404779  63.6418867
  69.5392310  55.0429650  63.0333436  69.3481211  54.5574498  65.1301433
  69.3607472  53.6088147  65.6675566  70.1924913  55.1014206  65.5518963
  68.0376578  55.2251880  65.4940009  67.2181266  54.5185863  65.3586029
  68.0300923  55.6314945  67.0311307  68.7889669  56.3900280  67.2255021
  67.0851915  56.0136597  67.4184410  68.1330859  54.6733786  67.5388483
  67.8459079  56.5356572  64.7072770  68.6334540  57.2694355  64.8744615
  67.8695260  56.4142193  63.6239779  66.8917188  57.0030288  64.9508563
  71.1128445  53.7233229  63.5890398  71.9632778  54.4857246  63.1153102
  71.3878372  52.4435261  63.9665012  70.6987598  51.8654616  64.4257384
  72.7111033  51.8887446  63.7139399  73.3799779  52.5626218  64.2476376
  72.8518735  50.4332556  64.2641657  72.0368029  49.7240656  64.1222558
  73.7589325  49.9142211  63.9544751  72.9688764  50.4790533  65.7557960
  73.4400949  49.3899937  66.5281647  73.2756285  49.7828980  67.7799447
  73.7577211  49.2453408  68.5828881  72.7956520  51.0361180  67.9088560
  72.7303841  51.6345874  68.7205853  72.6281118  51.4967603  66.6083838
  72.2490345  52.4603139  66.3006766  73.1546276  51.9287905  62.2089586
  74.3151108  52.3633784  61.9607288  72.2139600  51.6817736  61.2784275
  71.3372529  51.3599058  61.6624154  72.4847935  51.7137670  59.8645949
  73.2453213  50.9668709  59.6390807  71.2244254  51.1829150  59.1681881
  70.9679950  50.1862294  59.5259664  70.4714332  51.9393471  59.3895455
  71.4156792  51.0763116  58.1004523  72.9590614  53.0909294  59.4228034
  73.7332823  53.1790901  58.4701252  72.4624035  54.1844845  59.9483478
  71.7244523  53.9902613  60.6099122  72.9537819  55.5774998  59.7057746
  73.4920073  55.6301388  58.7600491  71.7608613  56.5074317  59.6147254
  71.1186240  56.3900331  60.4869953  71.9057269  57.5884343  59.5952708
  70.8971472  56.1016346  58.3718756  71.4138613  56.3640187  57.4482918
  70.7417033  55.0237479  58.3470653  69.5818698  56.8422301  58.2956098
  68.7089855  56.4552197  58.8214387  69.7346191  57.8473064  58.6885810
  69.0487119  57.0485170  56.8686742  68.6110612  56.1048638  56.5442262
  68.3514174  57.8582555  57.0842687  70.0321862  57.4608675  55.7852059
  69.5648114  57.4839256  54.8895525  70.3399254  58.4146253  55.9100771
  70.8356130  56.8546220  55.7043987  74.0297874  56.1423105  60.6693466
  74.5196001  57.2079468  60.5040689  74.3982594  55.3805029  61.7165503
  73.8313680  54.5744311  61.9353272  75.5368913  55.4239225  62.7323062
  75.8503705  54.4095839  62.9794844  76.7444125  56.1484590  62.2229189
  76.9885215  55.7896133  61.2230001  76.6258748  57.2318400  62.2115923
  77.8258617  55.7951651  63.0423749  78.6133931  55.7976649  62.4941989
  75.1547796  56.1147686  64.0885183  75.9748540  56.1337858  65.0267588
  73.8850369  56.4281043  64.3639079  73.1615911  56.2810337  63.6746639
  73.4414887  56.9707949  65.6318846  73.9801878  57.8142421  66.0638406
  72.0437042  57.5404174  65.4352992  71.3893707  56.8945812  64.8503545
  71.3422151  57.8223220  66.8056144  70.3163878  58.1639809  66.6689409
  71.2121216  56.8879294  67.3503274  71.8654763  58.5354890  67.4430911
  72.0730931  58.8578578  64.6576894  72.0925595  59.7741737  65.2472572
  72.9430886  58.8534223  64.0006024  70.8833676  58.9987818  63.6767890
  69.9439767  59.0754129  64.2247840  70.9623672  59.8674614  63.0224575
  70.8017062  58.0923509  63.0767778  73.4765718  55.8812823  66.6881613
  72.9115268  54.7971765  66.4569696  74.0383267  56.1570348  67.8967183
  74.4699655  57.0630134  68.0153424  74.1741312  55.2483609  69.0216725
  73.6437237  54.3056204  68.8862466  75.6608711  54.9501362  69.2029555
  75.6767900  54.7548594  70.2753638  76.1007691  53.7965423  68.4211442
  75.3917810  52.9809315  68.5675711  76.1280596  54.0161680  67.3542207
  77.0737844  53.4578466  68.7758433  76.6827311  56.1184822  68.9555777
  76.7120826  56.4565892  67.9192963  76.3010929  56.9427838  69.5578943
  78.1896499  55.8385628  69.2315535  78.7747916  56.7547883  69.1568672
  78.4115179  55.4301789  70.2175363  78.5736885  55.1095785  68.5188247
  73.6533303  55.9989888  70.2664958  74.1493709  57.0611291  70.5021495
  72.6164477  55.4388803  70.9485763  72.5203193  54.4438855  70.8004590
  71.6828205  56.0581078  71.9044940  71.2514961  56.9227940  71.4020421
  70.4188117  55.1766238  72.0370716  70.1053804  54.7911713  71.0664753
  70.7310107  54.2504338  72.5199937  69.2104626  55.9819255  72.6357972
  69.0242966  56.3047159  74.0208220  67.7574949  56.7961920  74.0962783
  67.4010256  57.3635561  74.9426515  67.1412393  56.7270600  72.8683908
  66.3626485  57.2949867  72.5637440  68.0789355  56.2210114  71.9677901
  67.9332078  56.1641742  70.8991456  72.2995852  56.3523316  73.2505783
  72.1512567  57.4726732  73.7018588  72.9016381  55.4364157  74.0371451
  73.0157000  54.4957601  73.6876915  73.6674527  55.6580710  75.2781391
  74.2660603  54.7693057  75.4772224  74.7130564  56.8073651  75.0952924
  75.0283983  56.8266586  74.0517660  74.2390085  57.7736560  75.2669066
  75.9222873  56.6044374  76.0017879  75.6173402  56.8743819  77.0127213
  76.3015225  55.5830698  75.9789221  77.1413400  57.4457627  75.5168423
  77.9071245  57.4354498  76.2922659  77.5730468  56.9307334  74.6582061
  76.8783532  58.8247777  75.1007985  75.8985933  59.0704272  75.0963407
  77.6946190  59.6837564  74.5490018  78.9769603  59.5353062  74.4796100
  79.3803421  58.6238492  74.6415186  79.5177485  60.3403819  74.1955902
  77.3297679  60.9007707  74.2146429  76.3328157  61.0600410  74.2021814
  78.0150770  61.5771849  73.9087619  72.7068071  55.6961883  76.4839866
  73.2351566  55.7711675  77.5519762  71.3222106  55.7104159  76.2951262
  70.8844359  55.6616029  75.3868880  70.4171098  55.6530044  77.4056110
  70.9253473  55.1534780  78.2308503  70.1039744  57.0854066  77.9954374
  71.0409271  57.6125508  78.1740231  69.5797999  57.7228481  77.2835228
  69.3442788  57.0978881  79.3078115  69.8866397  56.5301121  80.2844430
  68.3456540  57.8580697  79.4369758  69.1028824  54.9455326  77.0238414
  68.0108219  55.3635239  77.5080306  69.1921966  53.8940531  76.1970235
  70.0810122  53.6423619  75.7908457  68.0386155  53.1173301  75.6906825
  67.3021383  53.7852362  75.2430792  68.5584201  52.3073600  74.4431175
  68.8459331  52.9280523  73.5945143  69.4099069  51.7192244  74.7859188
  67.4980185  51.3476139  73.8376244  66.9651379  50.8182622  74.6268171
  66.2948917  51.9890056  73.0199493  65.7302694  51.1872550  72.5447570
  65.5856909  52.4679123  73.6944192  66.6072408  52.7132092  72.2671511
  68.2138407  50.3017377  72.9791795  68.8198990  50.7146446  72.1729095
  68.9467621  49.8207782  73.6269210  67.4745700  49.5590718  72.6775238
  67.2635295  52.3670165  76.7795623  67.8888768  51.4934159  77.3395264
  65.9607151  52.6565213  77.0743259  65.4998977  53.2520000  76.4014496
  65.1797935  52.0011934  78.1990058  65.3082928  50.9200014  78.1465674
  65.7768017  52.5433168  79.5544974  65.1748593  52.1710274  80.3832235
  66.7815555  52.1762539  79.7628477  65.7285730  54.1360508  79.6507124
  66.1891539  54.6849603  78.8284858  64.6617722  54.3563059  79.6103938
  66.4246170  54.6712605  80.9035681  67.4367541  54.2776242  80.9957791
  66.4676517  55.7604772  80.9059998  65.6101892  54.2368580  82.1180440
  64.5701186  54.5350543  81.9855102  65.4779571  53.1548878  82.1425443
  66.1237209  54.7282935  83.4498624  65.5434937  54.3705578  84.1956932
  67.0837787  54.4452678  83.5832926  66.0682996  55.7338942  83.5234331
  63.6960715  52.2827694  78.0523597  63.3116048  53.0857706  77.2241451
  62.8162116  51.5618104  78.8415850  63.0375175  50.7406896  79.3863367
  61.3659192  51.7417372  78.7160084  61.1425149  51.6064611  77.6583497
  60.6103464  50.6523660  79.4613009  60.8392484  50.6886931  80.5256586
  59.5279983  50.7070746  79.3445256  61.0318610  49.3563100  79.0636662
  61.8859394  49.2666394  79.4916081  60.6910677  53.1112978  78.9704808
  59.5187855  53.3181846  78.5239985  61.4145083  54.0829646  79.5647831
  62.1170355  53.7291071  80.1978529  61.1089820  55.4453616  79.6847208
  60.0638984  55.5397737  79.9811052  61.9505029  56.0664767  80.8034471
  61.7177560  55.6120466  81.7666039  63.0118925  55.8733876  80.6472874
  61.6457322  57.5324103  80.9409521  60.5920501  57.8826944  81.4038614
  62.6015082  58.3191508  80.5648726  62.5559298  59.3055209  80.7793663
  63.2917026  58.0280485  79.8872001  61.2326141  56.2475096  78.3146669
  60.4479943  57.1578043  77.9571918  62.2111576  55.8231874  77.4915666
  62.5761190  54.8976260  77.6667019  62.6002829  56.4878787  76.2723140
  62.1940871  57.4988653  76.2386080  64.1419509  56.7434826  76.2248748
  64.6715616  55.8249045  75.9694676  64.3549496  57.4378991  75.4124844
  64.5918554  57.3909613  77.4861021  63.8307314  58.2023699  78.0235630
  65.7092158  57.0575630  78.0785415  66.1251752  57.6801534  78.7568371
  66.2857671  56.2866566  77.7735595  61.9422508  55.8442235  75.0313185
  62.2969560  56.0919288  73.9146035  60.8454981  55.0050027  75.2960635
  60.5569059  54.7882904  76.2395084  60.0691260  54.2484390  74.3118857
  60.2608048  54.5384157  73.2783124  60.3445783  52.6851492  74.3864849
  60.1036001  52.3874768  75.4068543  59.4835856  51.8338304  73.4210105
  59.7090948  52.2396537  72.4347453  59.8412028  50.8108319  73.5354000
  58.4368793  51.8951384  73.7166949  61.8519423  52.3957271  74.0407659
  62.1224346  52.6717055  73.0222081  62.4572204  52.9756308  74.7374804
  62.3681403  50.9569590  74.1484679  63.4517504  51.0391634  74.0631933
  62.1766783  50.4552891  75.0971004  61.9835332  50.4510689  73.2628294
  58.5436501  54.4686006  74.4964342  57.9805971  54.1651628  75.5160821
  57.8766592  55.0409788  73.5110763  58.3279579  55.5010932  72.7339082
  56.4074833  55.3048613  73.6403366  56.0827879  55.1848471  74.6744901
  56.2174677  56.8024905  73.1285438  56.4173129  56.8650294  72.0590491
  55.2210006  57.1893982  73.3396712  57.2055403  57.7102626  73.8782180
  57.0097429  57.9244936  75.2423600  56.0565246  57.8131785  75.7378000
  58.0670192  58.4847112  75.9393966  57.9318444  58.7364601  76.9815599
  59.3039323  58.8616934  75.3210777  60.1246217  59.2915515  75.8771568
  59.4469682  58.6247496  73.9847987  60.4253238  58.7084943  73.5335061
  58.3772111  58.1011310  73.2901582  58.4692015  58.0247674  72.2167355
  55.6093980  54.2847087  72.7905851  56.0487783  53.7778532  71.7690277
  54.4967841  53.8188008  73.3604693  54.1833084  54.3218521  74.1786217
  53.5236302  53.0429079  72.5951643  53.9591126  52.6440019  71.6789858
  52.9229220  51.8217844  73.4050737  52.3179226  52.2246647  74.2176850
  52.2362947  51.2118092  72.8190751  53.9662999  50.8251209  73.9100840
  54.5191030  51.2780979  74.7338653  53.2692041  49.5932591  74.5355397
  53.9790040  48.8695774  74.9369759  52.6902704  49.8650904  75.4180920
  52.5842479  49.2281615  73.7707393  54.8812444  50.4145085  72.8217513
  55.5401001  49.5801902  73.0605799  54.3018078  50.0263453  71.9831432
  55.5049103  51.2678585  72.5555042  52.3893871  53.9222952  71.9883758
  51.4753237  54.3916105  72.6370515  52.5355296  54.1946945  70.7073141
  53.2190592  53.6465576  70.2049406  51.4127406  54.8809820  69.8873583
  51.0429889  55.7669975  70.4035697  52.0546055  55.5135760  68.6472860
  52.9077831  56.1216569  68.9453203  52.4058304  54.6997839  68.0127424
  51.0411856  56.3526883  67.8021916  50.6611395  57.6463056  67.9990069
  49.6880742  57.8824762  67.0957948  49.1789382  58.8286096  66.9877154
  49.5053597  56.8175441  66.3329258  48.9202850  56.7248863  65.5153592
  50.3211113  55.8325182  66.7223861  50.4062942  54.8457357  66.2927057
  50.2329394  53.9132981  69.6455007  50.4544189  52.8883585  68.9986354
  48.9602296  54.3710222  70.1151586  48.8974560  55.2190846  70.6603187
  47.6485330  53.6028068  70.0759162  46.9447135  54.1294767  70.7191175
  47.0797035  53.5568313  68.6286784  47.8590311  53.0459062  68.0644177
  46.1573963  52.9832039  68.7301388  46.7849993  54.9304548  67.9582511
  46.1706284  55.5044966  68.6509585  47.6556522  55.5202240  67.6717170
  46.0256245  54.7939661  66.5646591  45.0792108  55.5477498  66.2738923
  46.4337039  53.9082409  65.7587031  47.7765457  52.2721748  70.8382057
  46.9791299  51.4323190  70.6147437  48.7426287  51.9943039  71.7168144
  49.4191156  52.7350938  71.8298629  49.1005096  50.7463473  72.3163788
  49.7402259  51.0089325  73.1597323  47.9806481  50.0902201  73.1259777
  47.3198548  49.6064289  72.4069371  48.4747298  49.4015004  73.8112472
  47.1658372  50.9995004  74.1137239  47.7863566  51.8603609  74.8039593
  45.9276043  50.7588182  74.1849437  49.7620508  49.7427620  71.3009018
  49.8186129  48.6140530  71.6366917  50.1292639  50.1118897  70.1057959
  50.0041804  51.0985521  69.9321712  50.2917278  49.1613336  69.0065654
  50.3118833  48.0988810  69.2462426  49.1057103  49.3566999  68.0309833
  48.9950284  50.4255857  67.8483640  49.2951875  48.8613130  67.0792395
  47.6484021  48.9382144  68.4386640  47.4323620  49.3055396  69.4410791
  46.6712209  49.4804647  67.3828764  47.0415304  49.3468637  66.3668239
  45.6573346  49.0888408  67.4579922  46.5150187  50.5470950  67.5439034
  47.4441092  47.3656426  68.4486297  46.4446364  47.0010952  68.6827176
  47.8292050  46.9673960  67.5094998  48.1448049  46.9324047  69.1628254
  51.5807982  49.3617919  68.2111140  52.2485542  48.4324196  67.8130661
  51.9692167  50.6306805  68.0745022  51.3158309  51.3407944  68.3711336
  53.1219400  51.0504968  67.3099289  53.5202336  50.1352188  66.8714290
  52.7035886  51.9213092  66.1704918  52.2494028  52.8142764  66.5993844
  53.7493977  52.2197721  65.1855831  53.9172503  51.3522779  64.5472092
  53.4311561  53.0659264  64.5773823  54.7699212  52.4632866  65.4808570
  51.7112305  51.1920634  65.4194079  52.1903774  50.3843569  65.2234221
  54.2098446  51.6541098  68.2594725  53.8345533  52.5763470  69.0269990
  55.3697140  51.0187410  68.3625278  55.6957645  50.2936898  67.7396596
  56.4511932  51.4776062  69.3051574  56.0067599  51.7915505  70.2500484
  57.5094318  50.3390356  69.5009760  58.1184789  50.0806371  68.6347867
  58.5228389  50.6674783  70.6421533  59.1956350  49.8104677  70.6675135
  59.1229084  51.4918920  70.2576061  58.0398628  50.7667253  71.6140350
  56.7620211  49.0297263  69.9513709  56.1622891  49.2834493  70.8256455
  56.1137535  48.6858099  69.1455423  57.5369786  48.2940804  70.1675469
  57.1907954  52.7092869  68.6225863  57.5958290  52.6332045  67.4701709
  57.4448441  53.7824573  69.3862023  56.8518531  53.8840824  70.1977810
  58.2932364  54.9646364  68.9196018  58.8180649  54.5261022  68.0703923
  57.3307842  56.1719166  68.5137713  56.8636755  56.3774437  69.4770076
  57.8455678  57.0538675  68.1316293  56.2579430  55.7885044  67.4656797
  56.7806962  55.5009143  66.5529049  55.6229612  55.0086452  67.8855401
  55.2933010  56.9950635  67.2447565  54.5909517  57.1015608  68.0708617
  55.8486695  57.9239684  67.3780553  54.4863575  57.0309536  65.9022503
  53.7972717  56.1916615  65.8095870  53.8839816  57.9355351  65.9782409
  55.4112432  57.0518500  64.6813155  56.2007792  56.4219711  64.6575127
  54.8601915  56.8447635  63.8606662  55.6790229  58.0229262  64.5997858
  59.3434834  55.4027117  69.9106806  59.0440924  55.8258876  71.0464910
  60.6136769  55.2484824  69.4627165  60.7247198  54.9806575  68.4953343
  61.8097151  55.5284373  70.1335441  61.6994370  55.2800685  71.1892920
  62.9240949  54.6022154  69.5768667  62.9769771  54.7551831  68.4986834
  64.2795097  54.8655492  70.2971300  64.1693567  54.5209613  71.3257881
  65.0172819  54.2638446  69.7665919  64.6116811  55.9030382  70.2698594
  62.5301109  53.0853034  69.7071996  62.2685397  52.8725751  70.7438915
  61.5746859  52.8779992  69.2271339  63.4818064  52.0655282  69.1019157
  63.0519667  51.1154697  69.4180510  63.4126398  52.2755748  68.0344615
  64.4960058  52.2190599  69.4687026  62.2397779  57.0105593  70.0205600
  62.1156220  57.5537200  68.9214023  62.6408812  57.5265646  71.1510425
  62.6622337  56.9674868  71.9912347  63.1564288  58.9242398  71.2478085
  63.6373888  59.2251177  70.3166828  62.3049232  59.5823901  71.4197109
  64.1011399  59.1867977  72.5083216  64.7942577  58.2989521  72.9919887
  64.2892984  60.4869205  72.8188746  63.7915355  61.1166737  72.2050431
  65.1186302  61.0933704  73.8965356  64.9269936  62.1653990  73.8543921
  64.6086783  60.6882756  75.3077688  63.5439977  60.4620960  75.2522358
  65.1459431  59.7894799  75.6105606  64.8547310  61.7505898  76.4205041
  65.5845420  62.7417873  76.1148958  64.1163347  61.6836378  77.5000120
  66.6646451  61.0357839  73.7488174  67.4441776  60.4143924  74.4968948
  67.1188543  61.5652945  72.6258782  66.4383330  62.1002627  72.1068157
  68.5192031  61.5218983  72.1061533  68.9561925  60.5363568  72.2680088
  68.4499507  61.6614197  70.6426787  67.9194620  62.6034810  70.4980962
  69.4332777  61.7563891  70.1818839  67.5802875  60.6298596  69.8597663
  66.4116370  61.0266156  69.1813670  66.1151517  62.0646229  69.2283486
  65.6978315  59.9910070  68.5100477  64.7719534  60.1073113  67.9661340
  66.1444878  58.7046580  68.4665368  65.5823627  57.9311354  67.9663256
  67.2512354  58.2851290  69.2525578  67.6974441  57.3021608  69.2298994
  67.8817600  59.2571823  69.9725600  68.7715888  59.0137062  70.5341872
  69.4754034  62.6119901  72.7575386  70.5376931  62.9504358  72.1821917
  69.1206207  63.0858360  73.9226461  68.1812843  62.8933420  74.2421052
  69.8844080  64.1467386  74.6290515  69.9927316  64.9533583  73.9030703
  69.2429229  64.6188833  75.3734776  71.2274539  63.6965983  75.2692230
  72.0812295  64.4917226  75.7003305  71.4570951  62.3700775  75.2585709
  70.7388212  61.8098483  74.8233862  72.6983636  61.6856753  75.6861072
  73.4083496  62.4207097  76.0665612  72.2556825  60.7209121  76.8832101
  71.5566426  59.9495523  76.5595509  73.1402243  60.1588045  77.1813358
  71.5136117  61.3644429  78.1071811  70.6585769  61.8861204  77.6754936
  70.9502853  60.5309683  79.1336821  70.1720313  59.9591711  78.6274581
  71.6057075  59.8979945  79.7314780  70.4658849  61.2002126  79.8442539
  72.5354995  62.3631316  78.7803066  73.2203983  61.8289967  79.4384021
  73.0252892  62.9559371  78.0073243  72.0022606  63.0777982  79.4074301
  73.3974764  60.9214540  74.6236491  74.5910768  60.6385226  74.7726626
  72.7148582  60.5649739  73.5044403  71.7133980  60.6866684  73.5537343
  73.1919145  59.8969765  72.2633043  73.4478348  58.9003275  72.6245002
  72.1149207  59.8098664  71.1779863  71.8841901  60.7683974  70.7139045
  72.4718925  59.1464599  70.3910150  71.1757715  59.4946496  71.6321936
  74.4965426  60.5011685  71.6072048  74.8170761  61.6421791  71.9283963
  75.1972549  59.8027887  70.7501739  74.8941749  58.8713967  70.5053525
  76.2405439  60.2446574  69.8621024  75.9941706  61.2456050  69.5083480
  77.5919733  60.2942720  70.5515565  77.4872874  60.7991234  71.5120100
  78.3263149  58.9791525  70.8817747  78.8612404  58.7320741  69.9649214
  79.0501039  59.1785710  71.6717638  77.8279683  58.0679805  71.2120037
  78.4357571  61.0646711  69.6835709  78.3581727  61.9912741  69.9201666
  76.1502683  59.5028514  68.4780648  75.0864467  59.0204586  68.1086399
  77.3049830  59.3887139  67.8203524  78.0497662  59.9325717  68.2325971
  77.4917947  58.7975169  66.5386112  76.6629152  58.0974635  66.4352090
  77.5746971  59.8683396  65.4041162  78.1868869  60.7226192  65.6919931
  78.1118599  59.3315997  64.0291306  77.9724065  60.0978569  63.2663327
  79.1580196  59.0881764  64.2143981  77.5148996  58.4903760  63.6770851
  76.2030029  60.3723157  65.0986968  76.2434618  61.0907684  64.2795760
  75.6127354  59.5964513  64.6116202  75.6671644  60.8655713  65.9098620
  78.7609330  58.0257581  66.5412968  79.7763598  58.5716101  67.0089860
  78.7922915  56.7458449  65.9903922  77.9334792  56.4001427  65.5871314
  79.8982952  55.8130243  66.0238211  80.3513771  55.9201400  67.0093605
  79.3586412  54.3932495  65.7780467  78.3456193  54.2918666  66.1666883
  79.2887948  54.2088735  64.7064181  80.2596285  53.3195216  66.2619148
  80.8735023  53.6952861  67.0798989  79.6390638  52.5215485  66.6721298
  81.0450025  52.7131974  65.1108650  80.3421383  52.3380710  64.3675756
  81.7272957  53.4354959  64.6606006  81.7800176  51.4668012  65.6723722
  82.4519247  51.7931985  66.4661901  81.1282608  50.6578807  66.0026110
  82.6281629  50.9889263  64.5869774  82.0683081  50.7500297  63.7810803
  83.3195790  51.6912673  64.3651172  83.1215233  50.1395215  64.8214834
  81.0336578  56.2489238  65.0717354  82.2114101  56.1342854  65.3801079
  80.5766865  56.8783982  63.9793457  79.5911062  57.0975683  63.9391951
  81.4430017  57.3826451  62.9044099  82.2058890  56.6321478  62.6994496
  80.6478000  57.4367047  61.6097158  79.8848829  58.2148325  61.6266134
  81.3566099  57.6723622  60.8162046  79.9715112  56.2539475  61.2074722
  80.6108592  55.6975425  60.7556716  82.1418508  58.6545081  63.2846946
  82.9271346  59.0854371  62.5006598  81.8851381  59.1824281  64.4280708
  81.1397153  58.8918465  65.0438833  82.7528739  60.3401152  64.9692659
  82.9025639  61.0995516  64.2016128  82.0605246  61.0547887  66.1263827
  81.6507888  60.3263446  66.8269044  82.7199101  61.7149058  66.6885341
  80.9171751  61.8910086  65.6135922  81.3970633  62.8153168  65.2920651
  80.3215970  61.3626205  64.8695696  80.0287897  62.3380204  66.7575550
  79.4091999  61.5481588  67.1833345  80.6467690  62.6530680  67.5974160
  79.2103408  63.4595372  66.4523560  78.2704478  63.2514317  66.1484837
  79.5369533  64.6974478  66.4068835  78.7497351  65.5267929  65.8007753
  77.8596827  65.2577681  65.4066049  79.1081717  66.4456450  65.5831172
  80.6640897  65.1602058  66.8609589  81.2880282  64.4448031  67.2070481
  80.8595434  66.1407787  66.7179739  84.0887935  59.8535940  65.3793013
  85.0731529  60.5871788  65.3350870  84.2594027  58.5663097  65.7685525
  83.4904410  57.9138700  65.7073852  85.4039787  57.8869389  66.1894363
  85.1179780  56.9249518  66.6148284  86.3880555  57.5651616  65.0082648
  86.8459481  58.5113115  64.7176591  87.2329154  56.9909328  65.3887581
  85.7370557  56.8554752  63.8279689  85.4635505  57.3814651  62.6313384
  85.5388127  58.4310679  62.3867273  84.9351365  56.4382718  61.7912134
  84.6366903  56.6624593  60.8522460  84.8456124  55.2215275  62.3990025
  84.3120385  54.0183986  61.9878995  84.1139910  53.8401391  60.9413520
  84.4995885  52.8931195  62.8521669  84.3052460  51.9319036  62.3985304
  84.9071754  53.0346900  64.2037883  85.1644316  52.2396986  64.8880887
  85.4644746  54.2858478  64.5799581  85.8394428  54.5587377  65.5554411
  85.3703482  55.4340306  63.7331108  86.1465969  58.6916277  67.2731060
  87.3587830  58.7295929  67.3304956  85.3845738  59.0817054  68.2980559
  84.4043415  58.8574193  68.2014875  85.8534349  59.9721590  69.4161125
  86.9377762  59.9083458  69.5045483  85.2616171  61.3522864  69.2326218
  85.5397481  61.7102157  68.2407792  84.1765485  61.2693261  69.1670114
  85.5841177  62.3588185  70.2104308  86.5322003  62.4436016  70.3359705
  85.3444490  59.3430527  70.7946515  84.4784107  58.4407166  70.8079282
  86.0319110  59.6670592  71.8683520  86.7580611  60.3541221  71.7256507
  85.7916046  59.2695002  73.2581252  86.1106281  58.2346113  73.3885817
  86.3442228  59.9755753  73.8772206  84.3414090  59.5125823  73.7613923
  83.5970200  60.3609916  73.2687223  83.9527714  58.7053126  74.7408072
  84.6810217  58.0896113  75.0743404  82.5437205  58.6468745  75.3337445
  82.1143045  59.5471120  74.8941772  81.7791434  57.4143165  74.9184607
  81.8052450  57.3117831  73.8339559  82.2449671  56.5484845  75.3894088
  80.4264195  57.3407560  75.3488324  80.4727486  56.8395930  76.1665294
  82.5479578  58.9039730  76.8083470  83.4709522  58.4777990  77.4774383
  81.5049806  59.5408751  77.2861401  80.8841574  59.8792714  76.5648409
  81.0745763  59.7617775  78.7286408  81.2669219  58.8023977  79.2089974
  81.8301082  60.8240028  79.4644928  82.9084320  60.6957362  79.3792433
  81.5712610  61.7811889  79.0134741  81.6214254  60.9946033  80.9847256
  81.2511929  62.1385739  81.6015547  81.2155461  61.8252278  82.8829000
  81.1076408  62.4721911  83.7401310  81.5848664  60.5192655  83.0833736
  81.7995594  60.0494001  83.9506697  81.7327641  59.9543166  81.8319596
  82.1852844  59.0037527  81.5922041  79.6281031  60.0395207  78.7097712
  79.0479607  60.7850350  77.9323825  79.0174062  59.3470162  79.6851110
  79.5135202  58.6172569  80.1764717  77.5851352  59.5672599  79.9882928
  77.2959348  60.5949416  79.7681054  76.7509290  58.6158108  79.1046132
  77.2249327  58.6918338  78.1261807  76.8763100  57.5669065  79.3753556
  75.2498590  58.9237497  78.9557228  75.0898684  59.9938092  78.8276221
  74.8479248  58.4390906  78.0662086  74.4754660  58.4855845  80.1181886
  74.2903875  59.0803339  81.1564583  73.7546534  57.3951489  79.9802996
  73.0912688  57.1593875  80.7048433  73.8898931  56.8885107  79.1178067
  77.4511868  59.2778985  81.4846974  77.7808890  58.2035392  81.9356115
  77.0843922  60.3594198  82.1968852  76.9047928  61.1972259  81.6620918
  77.0292858  60.4963731  83.6808946  77.9745365  60.1434485  84.0928708
  76.8134984  61.9574520  84.1603081  77.4769656  62.6008289  83.5817084
  75.8205835  62.3012877  83.8700961  77.0020999  62.1820911  85.6682911
  77.4183510  61.1845203  86.6057459  77.7339235  60.2068440  86.2742069
  77.7087767  61.5185840  87.9142444  78.1986089  60.8017814  88.5560134
  77.5591532  62.8173912  88.3643451  77.6892305  62.9336222  89.4304508
  77.0621926  63.8273383  87.5144164  76.9713226  64.8108199  87.9519556
  76.8126433  63.5428714  86.1570786  76.5499705  64.3689200  85.5123145
  75.9491688  59.5753289  84.3209490  75.0241278  60.1004923  84.9053560
  76.0214169  58.3054720  84.0368420  76.7715221  58.0291405  83.4189066
  75.0646785  57.2471940  84.4579932  74.2722155  57.1931454  83.7124504
  75.7913081  55.8628696  84.2959927  75.8249899  55.6232982  83.2332166
  76.8246182  55.8859482  84.6406483  75.2192264  54.7283300  85.1348631
  74.1425618  54.8526577  85.2496885  75.4289404  53.8362051  84.5457025
  75.9280755  54.5065801  86.4514925  75.2249374  54.6341594  87.5153033
  77.1558120  54.3775666  86.5495060  74.4139417  57.4564522  85.8405023
  73.2011341  57.3446714  85.9282743  75.2199861  57.6781061  86.8582822
  76.2091616  57.7542745  86.6687978  74.8772194  58.0626483  88.2088551
  74.6941163  57.1762566  88.8164242  76.1867747  58.6176626  88.9242830
  76.8765815  57.7962307  89.1162289  76.7517104  59.1256990  88.1430988
  76.0621028  59.4520151  90.1927927  75.7036519  60.4419553  89.9108400
  75.3133789  59.0488674  90.8739656  77.3263889  59.5024386  90.9460073
  78.3691758  59.2734858  90.4089831  77.3693372  59.7158348  92.2447446
  78.2301357  59.5808163  92.7559715  76.5568508  59.6593521  92.8422774
  73.7486781  59.0889254  88.3237063  72.8674742  59.0169452  89.1977472
  73.7702178  60.1140936  87.4534125  74.5339145  60.3190676  86.8251736
  72.7590612  61.1962147  87.4523314  72.3576561  61.2190656  88.4651501
  73.5439177  62.4948882  87.2167055  74.5059826  62.4575729  87.7283662
  73.6670419  62.6019574  86.1391534  72.8896805  63.7909354  87.8099756
  71.8064015  63.7739702  87.6863442  73.0343668  63.8483841  89.3621607
  72.6483578  64.7992929  89.7285736  72.5025006  63.0542166  89.8853674
  74.0953561  63.8317292  89.6102704  73.3934029  65.0838961  87.1976217
  74.3902593  65.1989720  87.6232504  73.5391488  65.0628735  86.1181398
  72.7701383  65.9293621  87.4905732  71.6911262  61.0768732  86.4102924
  70.6250822  61.6240723  86.5380008  71.9694515  60.2666624  85.3939192
  72.9174408  59.9229859  85.4464431  71.0189817  59.8831732  84.3329342
  70.2704384  60.6494304  84.1335878  71.8191131  59.5535759  83.1022761
  72.4075207  58.6651035  83.3297297  71.1820434  59.3784346  82.2345799
  72.7314796  60.5395707  82.6780786  73.2916550  60.0360895  82.0826752
  70.1989843  58.6060381  84.7443163  69.4230041  58.1653938  83.9560998
  70.3892264  57.9781045  85.8878832  71.2716180  58.1380753  86.3528599
  69.6433163  56.8102470  86.3953406  69.9809054  56.7503504  87.4297298
  68.5584074  56.8878370  86.3309856  70.0259608  55.4814419  85.7508322
  69.4546028  54.4227289  86.0391686  71.0279858  55.4723260  84.8104234
  71.5341751  56.3194012  84.5961171  71.1939304  54.4697061  83.7695902
  70.2102735  54.2065109  83.3810076  72.0824216  54.9143139  82.6122323
  73.0755979  55.0947343  83.0247251  72.0712013  54.1469626  81.8373471
  71.7374184  56.2067276  82.0918117  71.0531562  56.2192052  81.4178988
  71.7077762  53.1171366  84.3091792  71.8654716  52.1823521  83.4980225
  71.9718599  52.9811997  85.6271928  71.7621122  53.7740576  86.2166257
  72.6145825  51.7320582  86.2010518  73.6157290  51.6884318  85.7719220
  72.8399054  51.7923322  87.7098346  73.3915544  52.6937273  87.9756000
  71.5307920  51.9087525  88.4975233  71.7055790  52.1933057  89.5354920
  70.9817063  52.7144183  88.0106553  70.9846234  50.9654031  88.5017298
  73.8612359  50.6575356  88.1127512  73.3960845  49.6724758  88.0959706
  74.7121544  50.7223178  87.4350492  74.3991685  50.7993449  89.5566330
  75.2012921  50.0966423  89.7804736  74.8788608  51.7772108  89.6042001
  73.4903634  50.7505271  90.1563972  71.9967538  50.4069642  85.8488949
  72.7258940  49.4521436  85.6634837  70.6888967  50.2884527  85.6967141
  70.1123323  51.1084417  85.8190930  70.1271773  49.0119691  85.3713485
  70.6102754  48.2511789  85.9846792  68.6069865  48.9268164  85.7195652
  67.9595228  49.5708892  85.1255735  68.2932241  47.9291252  85.4134632
  68.2279926  49.1329729  87.1288164  68.4734562  50.1478788  87.4405691
  66.7910748  48.8289540  87.4059192  66.1203186  49.3372012  86.7135920
  66.5965434  47.7584018  87.3434343  66.4993739  49.0860186  88.4238275
  69.0537072  48.2959871  88.1456321  70.1076617  48.4978238  87.9557933
  68.7576571  48.4264479  89.1866179  68.8023946  47.2862532  87.8199856
  70.4088742  48.6920975  83.8796827  70.6320506  47.5476633  83.6228484
  70.5611626  49.7564348  83.0153516  70.3584776  50.6906900  83.3415034
  70.6278343  49.5925014  81.6347554  70.2629596  48.5916132  81.4054800
  69.7771222  50.6931439  81.0129236  70.0653528  51.6358491  81.4800276
  70.0279152  50.7974796  79.9572613  68.2915823  50.5086237  81.2886186
  67.4012782  49.9042540  80.4696603  67.6455534  49.3830405  79.5551210
  66.2257273  49.7197996  81.1236685  65.3838995  49.3780090  80.6831890
  66.1876326  50.4126819  82.3246610  65.1448221  50.5686674  83.3125130
  64.1955829  50.0944255  83.1120095  65.4920220  51.3324195  84.4659292
  64.7338763  51.4823486  85.2202748  66.7300667  51.9468373  84.6135169
  66.9439793  52.6338939  85.4186440  67.7324508  51.7287517  83.6261878
  68.7590951  52.0332092  83.7666021  67.4697752  50.9165215  82.4565696
  72.0969599  49.5118633  81.1239634  72.3620117  49.1935426  79.9275628
  73.0249818  50.0937436  81.8247456  72.8170795  50.2889316  82.7931961
  74.3731530  50.4272624  81.3396842  74.1516828  50.9373520  80.4015427
  75.0644396  51.3382864  82.3493075  74.3852466  52.0923015  82.7453355
  75.3304124  50.7389638  83.2199509  76.3356624  51.9565267  81.7791483
  76.6145803  52.8480876  82.3408225  77.1023154  51.1805402  81.7794686
  76.2710863  52.5429258  80.0598723  75.1789977  53.9476050  80.3879042
  75.3537666  54.6798686  79.6000103  74.1534777  53.5831642  80.3344482
  75.3615801  54.1983672  81.4329722  75.1898208  49.1861698  80.9838700
  74.9082857  48.0883492  81.4326783  76.0956444  49.2543933  80.0104019
  76.4284453  50.1666127  79.7329791  76.6654842  48.0414585  79.4408471
  75.9094330  47.2620367  79.3477757  77.2022925  48.3427420  78.0181700
  77.3768177  47.3897359  77.5183247  76.4087976  48.7212518  77.3744169
  78.1599065  48.8577305  77.9508404  77.8344188  47.5469662  80.3507039
  78.5262044  48.4630885  80.8723028  78.2962234  46.3158720  80.4118563
  77.4829690  45.1443908  80.0195757  77.8137475  44.8350201  79.0275715
  76.4023070  45.2827122  80.0204484  77.8656210  44.0640748  80.9937773
  77.6817290  43.0681085  80.5907491  77.3753162  44.1024002  81.9665786
  79.2849114  44.3125395  81.3619784  79.9715755  43.9734316  80.5870227
  79.4806592  43.8701217  82.3394503  79.2841115  45.8700887  81.4321830
  78.9869826  46.1871865  82.4321872  80.6881437  46.2972389  81.2239730
  81.4251170  46.5384295  82.1536592  81.0713967  46.5208546  79.9774478
  80.4889776  46.2757991  79.1894091  82.3272163  47.1735083  79.6298385
  83.1457898  46.6782715  80.1513506  82.7794247  46.9738882  78.1703189
  83.7237318  47.4990896  78.0308463  83.0314747  45.9288141  77.9948166
  81.8280533  47.4280032  77.0555988  81.5971479  48.4892790  77.1430136
  82.4380688  47.3048972  76.1604095  80.6060699  46.5683438  76.9343289
  80.5174888  45.3958625  77.3066485  79.5499372  47.0956971  76.5232665
  82.3481520  48.6443166  79.9946506  83.3988814  49.1249223  80.3903699
  81.2498631  49.4034371  79.9192961  80.3937135  49.0066068  79.5592188
  81.2733851  50.7818913  80.3956834  82.2288571  51.1919710  80.0674428
  80.0437160  51.6326995  79.8873790  79.1134731  51.1148103  80.1198825
  79.9435737  52.8535623  80.8346380  80.8123788  53.5100218  80.8899620
  79.0688445  53.4481972  80.5740713  79.6470338  52.4719858  81.8117523
  80.2061786  52.0724101  78.3860684  80.3989429  51.1569157  77.8285238
  79.3257790  52.5388012  77.9434705  81.0520514  52.7584417  78.3560367
  81.3495278  50.7431816  81.9528038  82.3130462  51.2786405  82.4666179
  80.4496265  50.0005117  82.6837970  79.7859027  49.4635638  82.1454267
  80.5332286  49.9085062  84.1297692  80.4886046  50.8326070  84.7068944
  79.3878437  49.0260438  84.5850872  79.1666335  48.2706066  83.8307029
  79.6927764  48.3454308  85.9583756  78.9268226  47.6599972  86.3191755
  80.6474563  47.8210131  85.9543323  79.7548369  49.1560470  86.6836280
  78.0839833  49.8827230  84.6911761  78.2413785  50.6743686  85.4240057
  77.8697722  50.3321479  83.7208463  76.7388651  49.1684437  85.1401661
  76.4568092  48.5252341  84.3065621  76.8617318  48.6131842  86.0701820
  75.9508295  49.9045395  85.3030650  81.8762357  49.3907263  84.5959353
  82.3796817  49.7251791  85.6650529  82.5235845  48.5398446  83.8446612
  81.9711020  48.1619327  83.0887779  83.9037468  48.0215246  84.0230666
  83.9530136  47.6349880  85.0416918  84.3356157  46.8655557  83.1493212
  83.6385041  46.0525800  83.3507481  84.1896241  47.1875704  82.1191101
  85.8164283  46.4497657  83.1155896  86.4823077  47.2560587  82.8097362
  86.0927345  46.1470346  84.1260463  86.2351953  45.1760900  82.3158945
  86.6072699  45.5266316  81.3527927  87.0524755  44.7260085  82.8792315
  85.1173113  44.1765753  82.2258461  84.6632932  43.7478800  83.0206052
  84.3242996  43.9012215  81.2331157  84.3594839  44.4316126  80.0413261
  84.9775491  45.1509945  79.6950343  83.5650831  44.1195209  79.5006736
  83.4616536  42.9255076  81.2872481  83.4485960  42.3411127  82.1116292
  82.7641019  42.7709133  80.5723549  84.8811172  49.1263596  84.0766657
  85.7392886  49.1170646  84.9555089  84.7338171  50.1317364  83.2051605
  83.9920043  50.1349061  82.5205573  85.3853988  51.4705893  83.3698063
  85.0439446  52.1301331  82.5704859  84.9437483  52.0279869  84.7735957
  83.8717475  51.8577616  84.8803079  85.4253569  51.5878178  85.6477595
  85.1905970  53.5520085  84.7452759  86.2604191  53.7539425  84.6883514
  84.7013196  54.0042402  83.8827174  84.5702276  54.3134111  86.2442469
  85.5808970  53.5276962  87.6090856  86.6018654  53.8633260  87.4270141
  85.2000549  53.7553537  88.6043425  85.5182147  52.4409189  87.5496888
  86.9128970  51.4476644  83.2372441  87.6277037  52.1925049  83.9099507
  87.4345230  50.4908852  82.4883190  86.8314570  50.1063286  81.7753677
  88.8788383  50.1853995  82.3713111  89.4252472  51.0331690  82.7824134
  89.1226848  48.9316887  83.2130843  88.6740165  49.1649896  84.1786807
  88.6443846  48.0122315  82.8757457  90.6103198  48.8196712  83.4319982
  91.0996224  49.7839178  83.5727971  90.5870663  48.2658258  84.3710081
  91.3482506  47.9166386  82.5455901  90.8130808  47.3290638  81.6133953
  92.6321616  47.6613581  82.8190318  93.0868928  46.9610047  82.2513025
  93.1544649  48.0975313  83.5653316  89.5434087  50.0630774  80.9753951
  90.6627017  50.4958791  80.8971453  88.7594605  49.6247684  79.9651875
  87.8690772  49.2034057  80.1875502  89.2824104  49.7430432  78.5308164
  90.3506767  49.5257171  78.5006419  88.5885717  48.8017322  77.5594316
  88.6615444  47.8037854  77.9903948  87.5503012  49.1162981  77.4600157
  89.2495917  48.5746526  76.1558831  88.6234720  47.9828839  75.2442922
  90.4061721  49.0662839  75.9604722  89.1508965  51.1922110  78.1195127
  88.4577517  51.9863089  78.7337601  89.7784926  51.5584373  77.0337377
  90.3844562  50.8740957  76.6039300  89.6452575  52.9223225  76.4395462
  89.6574463  53.7092412  77.1939576  90.8198563  53.1368760  75.5057200
  90.9627545  52.2833472  74.8433200  90.4950176  53.9502222  74.8572065
  92.1245196  53.3425459  76.2706504  92.6154638  52.5197671  76.7916023
  92.8828582  53.6038722  75.5312689  92.1285246  54.5296221  77.3157298
  91.8130713  55.4216447  76.7747474  91.4021627  54.4074912  78.1196648
  93.5624277  54.7471055  77.7466415  93.9096239  53.8212593  78.2050264
  94.1030291  54.9333205  76.8184034  93.8730257  55.8304956  78.7430294
  94.8693471  55.9766256  78.8184134  93.5056486  56.7183432  78.4327318
  93.4480850  55.5981485  79.6290842  88.4049042  52.9480762  75.5125869
  88.2254999  52.0436817  74.7099846  87.5616067  53.9209793  75.7132006
  87.8140054  54.6566292  76.3567619  86.2961934  54.1473391  74.9173870
  85.6742973  54.7447528  75.5836723  86.6205709  55.0019509  73.6380348
  87.3053684  55.8330313  73.8104174  87.0623789  54.3971719  72.8460991
  85.3421017  55.6121031  73.1266889  84.4031247  55.6518680  73.7900516
  85.4272550  56.0301978  71.8554349  84.6336603  56.5607213  71.5272746
  86.3190711  56.0664533  71.3820137  85.4117772  52.8858717  74.6570930
  85.1883080  52.4746361  73.5272514  84.9579814  52.1403863  75.6913995
  85.2540833  52.3532453  77.1158428  85.0858008  53.3982211  77.3760976
  86.3140846  52.1345257  77.2450287  84.4996378  51.3196807  77.9264909
  83.5480678  51.7285385  78.2640716  85.0853716  50.9600398  78.7724030
  84.2506380  50.1943433  76.9267750  83.3163891  49.6847318  77.1613833
  85.0319817  49.4346657  76.9360508  84.2997459  50.8647416  75.5386895
  84.9373839  50.1940780  74.9614415  82.9336980  50.8077439  74.8808548
  82.6739189  49.8723253  74.1760400  82.1185202  51.8388974  75.1486783
  82.4807471  52.6023381  75.7019377  80.7762006  51.9552609  74.5673412
  80.1832064  51.1315642  74.9644353  80.2745977  53.3354654  75.1025655
  80.2335885  53.2560159  76.1892992  80.9717841  54.1272401  74.8293019
  78.8902027  53.7028029  74.4955444  77.8203883  52.8257323  74.8435403
  78.0681301  51.9470790  75.4206671  76.5420659  53.0673700  74.2980184
  75.6900164  52.5150297  74.6656511  76.3827299  54.1500757  73.3816983
  75.2629211  54.3882707  72.6915126  74.6281940  53.6838103  72.5407243
  77.5038224  54.8941464  72.9317291  77.4279649  55.6959710  72.2123308
  78.7049792  54.7458634  73.6184047  79.4659300  55.4727866  73.3728245
  80.8090946  51.9054474  73.0038443  81.6825244  52.4614223  72.3590209
  79.7802966  51.2634151  72.4627960  79.0762610  50.9773590  73.1286547
  79.8433054  50.6433658  71.1396616  80.3274663  51.2797714  70.3992421
  80.7743118  49.3815623  71.2354221  80.9426406  48.8960795  70.2743161
  81.6867588  49.7249298  71.7233404  80.3039628  48.5594322  72.2298843
  80.2305271  48.9993864  73.0798263  78.4920928  50.2169908  70.6087021
  77.5136923  50.2636695  71.3822101  78.3694870  49.7181331  69.3702423
  79.1634981  49.8820249  68.7674257  77.1395101  49.1496683  68.8035839
  76.3599751  49.9077820  68.7312107  77.3482613  48.5400918  67.4273131
  78.2392698  47.9122316  67.4542474  76.4952401  47.9556433  67.0812946
  77.4873132  49.6104831  66.2930595  76.5577084  50.6410335  66.0917667
  75.7051413  50.8536124  66.7207544  76.6946691  51.5832956  65.0160670
  76.0534478  52.4475392  64.9211603  77.6265788  51.2773454  64.0087837
  77.6997873  51.9269139  63.1499459  78.5075334  50.2017296  64.1654864
  79.1668519  50.0154362  63.3299507  78.4884695  49.4252212  65.3434411
  79.1102964  48.5436095  65.3989497  76.6168803  48.0020932  69.6742913
  75.4242680  47.9753249  70.0177564  77.5407031  47.1711619  70.2515958
  78.5117488  47.3085340  70.0140031  77.1287060  46.1070232  71.1928706
  76.2925880  45.5616648  70.7547475  78.2866440  45.0698675  71.1886291
  79.2521093  45.4630258  71.5089498  78.1343444  44.3223191  71.9672762
  78.6010690  44.2927261  69.9332220  78.9560046  43.3033596  70.2219063
  77.6801477  44.1613533  69.3636861  79.7000964  44.8752340  68.9706129
  80.1167731  46.0097727  69.0964083  80.0533342  44.1020687  67.9943612
  80.6733322  44.5354951  67.3253888  79.7046554  43.1614091  67.8835391
  76.6961116  46.6316462  72.5484748  75.9178697  45.8848243  73.2095054
  77.1497689  47.8210911  72.9776903  77.6286270  48.4756301  72.3763106
  76.7848645  48.4320743  74.2194130  76.7226851  47.6506832  74.9781849
  77.8901742  49.4718930  74.6011727  77.9509351  50.2578057  73.8489996
  77.5675279  49.8701608  75.5631073  79.1616865  48.8965505  74.7424079
  79.1770405  48.1159060  75.3018383  75.3426196  49.0333669  74.1267473
  74.6280969  48.8029536  75.0612226  74.8618092  49.5120110  72.9783135
  75.4088224  49.5221880  72.1288884  73.3921484  49.7203440  72.8642674
  73.0682032  50.2195219  73.7784479  72.9141698  50.4505009  71.6019903
  73.3902153  49.8939026  70.7950077  71.8505022  50.2955733  71.4216249
  73.1175766  51.9769128  71.5913366  73.4309148  52.6322773  72.6476214
  72.9117994  52.5441771  70.4772128  72.6844639  48.2836684  72.8815864
  71.5336420  48.2862488  73.3416758  73.2377733  47.2118860  72.3164748
  74.1925875  47.1957621  71.9884139  72.5345044  45.8980685  72.2305543
  71.5384655  46.0135071  71.8030868  73.1816383  44.8186724  71.3694021
  74.2152025  44.6584417  71.6752945  72.5273543  43.3887514  71.5420845
  72.6555209  42.9944021  72.5501376  71.4755299  43.4481760  71.2643649
  73.0369128  42.7341032  70.8343445  73.1776537  45.2215320  69.9095445
  72.1705144  45.3647918  69.5163956  73.7984372  46.1157304  69.8482172
  73.6617207  44.4980909  69.2542231  72.2537799  45.3736553  73.6688601
  71.1803756  44.7282038  73.9029889  73.1243268  45.6628405  74.7006034
  73.7535766  46.3786501  74.3644675  72.9823855  45.3129333  76.0631076
  72.8007952  44.2452710  76.1853987  74.3237584  45.5346523  76.7853786
  75.0425116  44.9242773  76.2389627  74.6657587  46.5697582  76.8123179
  74.2568073  45.0169811  78.1849999  74.6414494  43.6719838  78.4759806
  74.8124533  42.9287878  77.7120438  74.6234211  43.2509077  79.7997736
  74.7523259  42.2166877  80.0807606  74.1616001  44.0624011  80.8937269
  74.1577270  43.7198362  82.1846472  73.8145307  44.4253212  82.7382826
  73.6981093  45.3608426  80.6243666  73.3958038  46.0613205  81.3885937
  73.6944172  45.7874068  79.2713827  73.3048191  46.7566784  78.9976552
  71.8262998  46.0805739  76.7288792  71.0442204  45.4705394  77.4499304
  71.7703512  47.3996502  76.4746362  72.4727901  47.9036559  75.9524802
  70.6786889  48.2398735  76.9870737  70.7219449  48.0722613  78.0635262
  70.9194745  49.7121626  76.7107236  70.8846612  49.9987652  75.6603290
  70.1207329  50.2405652  77.2320119  71.8574862  50.0618227  77.1417837
  69.3184200  47.6978346  76.5041749  68.4343724  47.3494765  77.3551258
  69.1594381  47.4328617  75.2135645  69.9212795  47.6551202  74.5879346
  68.0939248  46.6347980  74.6651563  67.1446927  47.1538910  74.7926782
  68.3656169  46.5242599  73.1241307  68.2177889  47.4902848  72.6406065
  69.4114964  46.2271996  73.0508832  67.4179419  45.5618008  72.3956078
  67.8492508  44.2073066  72.4032212  68.7194000  43.9178443  72.9737921
  67.0788457  43.2082822  71.7601347  67.5066667  42.2176625  71.7919588
  65.7889722  43.5048297  71.2489126  65.1080031  42.7909105  70.8097631
  65.3890277  44.8615150  71.1992579  64.4872091  45.1786632  70.6956537
  66.1810972  45.8348641  71.8277692  65.7799118  46.8346826  71.7520255
  67.8413531  45.2933692  75.3774360  66.7282079  44.8228672  75.5614917
  68.9285851  44.6690301  75.7758659  69.8222364  45.1102344  75.6075923
  68.8611779  43.4810332  76.6386108  68.3634492  42.6668491  76.1120604
  69.8585290  43.0617079  76.7728271  68.1066748  43.7359050  77.9345234
  67.1947244  42.9496022  78.2625910  68.3171136  44.8429801  78.5958230
  68.9805341  45.4763848  78.1718019  67.5255433  45.2093261  79.6987264
  67.3386127  44.3441914  80.3356125  68.3018134  46.1073401  80.6694584
  68.3265259  47.0699785  80.1589658  67.6556126  46.2309250  82.0616381
  67.5074005  45.2060145  82.4004914  68.3409309  46.7106437  82.7607053
  66.6924897  46.7404919  82.0932888  69.7846344  45.6343842  80.9859952
  70.3216316  45.5029820  80.0466979  70.2995128  46.4677211  81.4641612
  70.0784981  44.3623820  81.7725534  71.0552558  43.9430116  81.5351827
  70.1147680  44.5686064  82.8430584  69.3481791  43.6569009  81.3773287
  66.0708613  45.6493242  79.4641650  65.1551140  45.4367727  80.2675272
  65.8121197  46.1764215  78.2323662  66.5841112  46.5156608  77.6753035
  64.4307032  46.3326380  77.6612349  63.7990666  46.9773982  78.2710099
  64.3521383  47.1334939  76.2981592  65.0542427  46.6590022  75.6127738
  62.9299291  47.1300312  75.6673414  62.0530450  47.3723093  76.2681754
  62.8490449  47.7394636  74.7666645  62.7352721  46.1039003  75.3572283
  64.8290726  48.5777737  76.3875758  64.9358258  48.9749601  75.3779137
  64.1033754  49.1718325  76.9417092  65.7657673  48.6989075  76.9319053
  63.7419171  44.9999605  77.4993634  62.6122646  44.8270023  77.9247099
  64.5082783  44.0202046  76.9797281  65.4542519  44.1964648  76.6740317
  63.9486626  42.6038591  76.9423542  62.9416204  42.5311130  76.5299333
  64.8160130  41.6707558  76.0608768  65.8222608  41.7187208  76.4770747
  64.4398237  40.6553035  76.1837602  64.8306339  42.0482040  74.5610554
  65.1570026  43.0681238  74.3566615  65.8151619  41.1614026  73.8639838
  65.6694922  41.2908409  72.7916751  66.8812761  41.3395642  74.0056169
  65.5895757  40.0981030  73.9333663  63.4300269  42.0314625  73.9067001
  62.7312927  42.4880068  74.6087448  63.6729521  42.6069351  73.0128189
  63.2345859  41.0134585  73.5697851  63.7044869  41.9852431  78.3109176
  62.7973238  41.1960998  78.4193423  64.4687614  42.3333968  79.3574564
  65.2665776  42.8715511  79.0521414  64.2414639  41.9199185  80.7956377
  64.1494199  40.8341040  80.7530624  65.4835955  42.3453754  81.6100501
  66.4443445  42.1959337  81.1172950  65.4349825  43.4190180  81.7957633
  65.6686752  41.5958595  82.9582657  64.9124788  42.0693871  84.0861046
  64.3599535  42.9932560  84.0015340  64.8424206  41.2879302  85.2605806
  64.1698397  41.5220140  86.0724905  65.6311240  40.0770373  85.3157213
  65.5204779  39.1966979  86.3134267  65.8334186  38.3195315  86.0818768
  66.3411238  39.6477130  84.2002493  66.8612782  38.7094151  84.3236648
  66.3822871  40.3917829  83.0394221  66.9196406  40.0251751  82.1768075
  63.0036167  42.5399159  81.4289201  62.1652888  41.9022618  82.0522407
  62.9001451  43.8486057  81.1246004  63.6320351  44.2778871  80.5779922
  61.7158718  44.6402542  81.4717452  61.7111967  44.8207341  82.5460888
  61.8801434  46.0840821  81.0087174  62.2071964  46.1617175  79.9718306
  60.9201756  46.5997654  81.0009392  62.8370743  46.9154308  81.8561958
  62.4779873  46.8539787  82.8834427  63.8476641  46.5213306  81.9553631
  62.7802904  48.4479625  81.4735429  63.5440253  48.9022721  80.5323140
  61.8417626  49.1363833  81.9242406  60.4129065  44.0947470  80.9471659
  59.4923936  43.8698836  81.7309653  60.4180061  43.6149970  79.6575962
  61.2765209  43.8172496  79.1654130  59.3614982  42.9064756  78.9765716
  58.5138193  43.5086122  79.3057312  59.6670404  42.9005877  77.4665864
  60.7172134  42.6153467  77.4058637  58.9797501  42.1913479  77.0065049
  59.4086670  44.2462629  76.8250894  59.7245624  44.9989714  77.5475948
  60.1782828  44.3473744  75.4920218  61.2067819  44.6702606  75.6523344
  60.2280756  43.3919823  74.9698796  59.6550449  44.9675433  74.7633506
  57.9000971  44.5458575  76.6410546  57.8435181  45.4619421  76.0534555
  57.3998846  43.7600676  76.0760257  57.4189368  44.8368859  77.5748106
  59.1982847  41.5216571  79.4936529  58.1271518  41.1461239  79.9262682
  60.2201130  40.6264088  79.4053491  61.1227328  40.9657478  79.1064922
  60.0787776  39.1782882  79.6210482  59.1177293  38.8103909  79.2629999
  61.0941291  38.4116349  78.7505282  62.0941519  38.6311619  79.1234508
  61.0207390  37.3330083  78.8847984  61.0284799  38.6664938  77.2184952
  61.1527179  39.7477588  77.1673004  61.8862608  38.2051015  76.7299022
  59.4958628  38.1451669  76.3470206  59.5544468  39.2653173  74.9546683
  60.4609062  39.1076734  74.3699386  58.7622011  39.1454924  74.2149936
  59.3257631  40.2654699  75.3232771  60.1182193  38.7730060  81.1018563
  59.9361683  37.6381185  81.4472675  60.3937009  39.7617070  81.9819093
  60.6351810  40.6696855  81.6124456  60.0274423  39.5612819  83.4180536
  59.6896570  38.5264182  83.4799015  61.2260958  39.7831362  84.3004999
  60.9791661  39.3588586  85.2734383  62.6228536  39.2125379  83.9098451
  62.6381934  38.1227591  83.8786715  62.9709459  39.6862314  82.9911671
  63.2978242  39.3727127  84.7503287  61.4716981  41.1146845  84.5245795
  61.8230388  41.5157546  83.7271339  58.9002600  40.3956748  83.9342768
  58.3694526  40.0755745  85.0128872  58.4751596  41.4526032  83.2059617
  59.0551549  41.5724363  82.3871427  57.6080938  42.5703278  83.7671690
  57.5840020  43.4130136  83.0768168  56.5905984  42.1996113  83.8947716
  58.0992641  43.1108150  85.0896660  57.3340126  43.6539173  85.8838908
  59.3971104  43.1456742  85.4282525  60.0232993  43.0818646  84.6385115
  60.1167169  43.7756204  86.5562450  59.6464641  44.7054204  86.8776425
  60.2379894  42.6815975  87.6645991  60.7605717  41.8286373  87.2308751
  60.7813979  43.2368553  88.4288543  58.8640368  42.2324747  88.2065117
  58.4332739  43.2084559  88.4309512  58.3303498  41.6053537  87.4925276
  59.0190892  41.3861574  89.4107765  60.0248892  40.8197452  89.7485244
  57.9370814  41.2621111  90.1297275  58.0914103  40.9951928  91.0921532
  57.1936451  41.9385253  90.0359281  61.4429550  44.3118001  86.1621920
  61.7725790  44.6188486  84.9829044  62.3081710  44.6643990  87.0973574
  61.9914554  44.4935109  88.0403343  63.5745955  45.3451258  86.8932766
  63.6961293  45.4886443  85.8199579  63.5043100  46.7546890  87.4759389
  62.9885333  46.8166864  88.4340155  64.5131648  47.1132710  87.6794015
  62.8693738  47.5960864  86.3796614  61.9306741  47.1431648  86.0607334
  62.4408968  48.8910434  87.0111429  61.7860802  49.3776438  86.2884292
  61.9629784  48.7198878  87.9761786  63.3204471  49.5183939  87.1538867
  63.7194104  47.9534938  85.1252761  64.1466611  47.0984413  84.6000561
  63.0396925  48.3700423  84.3817138  64.4248490  48.6995161  85.4894947
  64.7283537  44.5291967  87.5109382  64.4771089  43.8697813  88.5038921
  65.9574039  44.5904759  86.9766242  66.3603454  45.1158501  85.7495720
  66.5607572  46.1853568  85.8135827  65.4907213  44.9444205  85.1154602
  67.4550813  44.1896109  85.2135373  68.0975183  44.7490646  84.5339542
  67.0272584  43.2843307  84.7844379  68.2039811  43.9649007  86.5173147
  68.8441554  44.7565904  86.9074383  68.8165810  43.0670229  86.4405951
  67.0154636  43.7342378  87.4452455  66.6042855  42.7266791  87.3859245
  67.5063273  44.1712270  88.8487491  67.3910134  45.3455108  89.2110618
  68.2565085  43.3311282  89.5292792  68.1961895  42.4054036  89.1293836
  69.1035947  43.4525530  90.7304894  69.4580345  42.4436336  90.9421449
  70.3494310  44.4200902  90.5047314  70.1039515  45.4808906  90.4684071
  71.1266164  44.2986514  91.2590354  71.1152893  44.2273155  89.1558281
  71.1781659  42.9822250  88.5564675  70.7709682  42.0835722  88.9962143
  71.7202439  42.9180293  87.2556353  71.6778071  41.9917943  86.7012665
  72.3175007  43.9587849  86.5864581  72.9494462  43.8543832  85.3587101
  73.0928181  44.6944891  84.9164652  72.3007464  45.2135865  87.2539394
  72.7761163  46.0483266  86.7586793  71.7096300  45.3721982  88.5390918
  71.6617118  46.3464082  89.0026731  68.3310065  43.8509833  92.0778111
  68.8348986  44.5341504  92.9332346  67.0260608  43.5351170  92.2792567
  66.7383690  42.8674295  91.5777513  66.1757394  44.0357015  93.3728698
  66.1628370  45.1243923  93.3198419  64.7319701  43.5919155  93.1670396
  64.1861067  44.0772504  93.9760218  64.3360354  43.9060141  92.2020341
  64.5577603  42.1836309  93.3250381  64.8414207  41.8922396  92.4548560
  66.6616274  43.7755714  94.7871378  66.3809640  44.5037612  95.7078184
  67.3556820  42.5987909  94.9341914  67.2918184  41.9674775  94.1493380
  68.0160263  42.1178990  96.1998921  67.3839300  42.2652469  97.0755427
  68.0392653  40.5258749  96.0766029  68.7890942  40.2145774  95.3486025
  68.3876834  40.0978581  97.0162542  66.6973439  39.8638765  95.8713984
  65.9226457  39.8400419  96.7559523  66.3680372  39.2643317  94.7766148
  65.4249378  38.9182832  94.6737163  66.9085372  39.6106032  93.9964573
  69.3531487  42.7342234  96.5076484  70.0170990  42.4537891  97.4793122
  69.9204001  43.5095436  95.6365586  69.2660650  43.7683806  94.9125621
  71.1738384  44.1789075  95.7028262  71.6468992  44.0348393  96.6751948
  72.1236805  43.7763010  94.5149743  71.5269647  43.9542106  93.6202859
  73.4117493  44.5798800  94.4794428  74.0350926  44.3966520  93.6037650
  72.9897709  45.5672413  94.2924406  74.0243713  44.4058458  95.3639836
  72.4940964  42.2176430  94.4646638  73.0858351  41.8885263  95.3188350
  71.5889631  41.6228664  94.5850654  73.2595706  41.6542153  93.2053833
  74.2833714  41.9912356  93.3653060  73.1807658  40.5674549  93.2382852
  73.0167917  42.0966707  92.2394471  70.8600770  45.6698490  95.5984929
  70.6413833  46.2361767  94.5086030  70.9661251  46.3853313  96.7051133
  71.3317032  45.9409489  97.5346433  70.3413506  47.7563744  96.8305196
  69.8549817  48.0625719  95.9045296  69.2442724  47.5941057  97.8920285
  69.7632978  47.2600073  98.7903580  68.7316215  48.5478335  98.0143986
  68.1580696  46.6788687  97.4643197  67.3027804  47.0347028  96.6918876
  68.1741738  45.4155066  97.7818427  67.4198789  44.9042550  97.3453624
  68.9878328  45.0087660  98.2210489  71.4551402  48.8303637  97.2023564
  71.0914011  49.8572370  97.7689754  72.6637674  48.5355352  96.8134046
  72.8115747  47.5974012  96.4693250  73.8558521  49.3743266  96.7308398
  73.5269125  50.4038478  96.8715269  74.8034868  49.1263494  97.9356724
  74.2887908  48.9272839  98.8758596  75.4271356  48.2575405  97.7229017
  75.6244164  50.4157299  98.1287928  76.5422211  50.7351122  97.4313406
  75.2730294  51.2807286  98.9878088  75.9815294  51.9868179  99.1319707
  74.4837619  51.1609298  99.6058340  74.5888700  49.2260575  95.4033320
  74.9957900  48.0901172  95.1074321  74.9463463  50.3670733  94.7871286
  74.6197470  51.2154731  95.2279149  75.6350153  50.5011711  93.5631781
  75.0943884  49.7959147  92.9318541  75.2896590  51.8663095  93.1057494
  75.4908697  51.8926189  92.0350047  74.2099094  51.9592340  92.9913819
  76.0654982  53.0016458  93.8055680  75.7214062  53.1937889  94.8222999
  77.1343625  52.8013186  93.7329591  75.6810680  54.3291228  93.1026177
  74.6134251  54.4537629  92.9174438  76.0064418  55.2161651  93.6460042
  76.5341101  54.2892551  91.8475624  77.4876433  53.9702835  91.9389054
  76.1393137  54.3610436  90.5948113  74.9215690  54.6528541  90.2532772
  74.2244790  54.4576049  90.9572127  74.6322044  54.6731764  89.2857705
  77.0416783  54.0464900  89.7086109  78.0434188  54.0136673  89.8357984
  76.7250711  54.0963045  88.7509557  77.1382946  50.1827569  93.5108935
  77.5594034  49.5688363  92.5421019  77.9388110  50.4041577  94.5091701
  77.6663904  50.8424742  95.3764132  79.2953247  49.9379190  94.5522415
  79.7990172  50.4539557  93.7346805  79.9259525  50.4801650  95.8097040
  79.5891275  51.5045133  95.9733053  79.5076869  49.9716768  96.6794020
  81.4531378  50.5020508  95.7844260  81.9060659  51.0447410  94.7468956
  82.1349089  50.0916066  96.7117069  79.5203214  48.4489612  94.4285203
  80.4644356  47.9491125  93.7984364  78.6074334  47.6924728  94.9202346
  77.9623348  48.0068298  95.6307643  78.4682214  46.2886189  94.6632457
  79.4532635  45.8291879  94.7512233  77.5240672  45.7264698  95.7697638
  76.6690913  46.4011654  95.8215320  77.1082401  44.7576676  95.4940627
  78.0223646  45.6467437  97.2008363  78.9519890  45.0790048  97.1850243
  78.3508760  46.6392185  97.5094396  77.1014989  44.9164577  98.1947993
  76.2166934  44.1914672  97.8074685  77.2981468  45.1217121  99.4494101
  76.6439769  44.7077854 100.0982818  78.0057898  45.7922456  99.7127695
  77.9854760  45.8627768  93.2223278  78.7393705  45.1362662  92.5795242
  76.9356106  46.4392761  92.7296848  76.2427664  46.8738417  93.3231835
  76.5262283  46.3111146  91.3266632  76.2843749  45.2934294  91.0194096
  75.2476725  47.2008507  91.0078863  75.5398773  48.2162067  91.2728516
  74.8523632  47.0288764  89.4884886  75.6880224  47.4835571  88.9558741
  74.6936260  45.9885571  89.2032443  73.9181453  47.5544191  89.2918779
  74.0359759  46.7887251  91.9283345  73.6876166  45.7797351  91.7039173
  74.3092270  46.7479646  92.9826089  72.8818998  47.8208789  91.9201635
  73.3278154  48.7402329  92.3003182  72.4492770  47.8255053  90.9198890
  72.0672014  47.4533241  92.5424593  77.7389494  46.6261419  90.3671913
  78.1076932  45.7948154  89.5783958  78.3556414  47.8167878  90.4244899
  78.0628475  48.4635317  91.1421103  79.3560850  48.3877065  89.4884875
  78.8812556  48.3237946  88.5101924  79.7875651  49.8475911  90.0167713
  80.0175052  49.7845577  91.0804834  81.0619932  50.3662597  89.2480543
  80.9753649  50.2568322  88.1666223  81.3110634  51.4044923  89.4668561
  81.9251912  49.8128166  89.6173373  78.7656846  50.9889241  89.8446056
  77.8676377  50.9349061  90.4596414  79.2160962  51.9305309  90.1591052
  78.2592365  51.0916112  88.3951386  77.4640980  51.8033657  88.1741741
  79.0898101  51.2626996  87.7100821  77.7424089  50.1544745  88.1889300
  80.6134946  47.4023006  89.4306144  80.9772279  46.8981694  88.3498615
  81.1527016  47.0281662  90.6169766  80.6935997  47.3529047  91.4553908
  82.1300009  45.9338190  90.7290270  83.0284812  46.2275873  90.1848475
  82.3422217  45.6947561  92.1985440  82.6686650  46.6375245  92.6383571
  81.4305674  45.3332393  92.6743234  83.4300618  44.6840724  92.5520798
  84.7682857  44.9512561  92.2571807  84.9940551  45.9250254  91.8485029
  85.7332370  43.9855910  92.5508776  86.7800213  44.2100441  92.4081035
  85.4072304  42.7833494  93.2896006  86.1466839  42.0094840  93.4355289
  84.0456928  42.5459744  93.5302695  83.7554133  41.6564604  94.0696587
  83.1060787  43.5035018  93.2441095  82.0697880  43.3442379  93.5025307
  81.6834330  44.5607209  90.1328796  82.3744945  43.9018309  89.3335499
  80.5500851  44.0130535  90.5201947  79.9217585  44.5305382  91.1184799
  80.1325285  42.6297268  90.1833998  80.9658165  41.9902726  90.4753170
  78.8971874  42.3235884  91.0349305  78.1925416  43.1017307  90.7374629
  78.6972577  41.3041109  90.7038190  79.0427650  42.3055374  92.5555403
  79.8366223  43.0107923  92.8027285  78.0715879  42.6416218  92.9201324
  79.4209237  40.7029205  93.2933723  78.0496233  39.6123956  92.8218974
  78.0439208  39.3925803  91.7546974  78.0251191  38.6728624  93.3749470
  77.1333148  40.1237738  93.1193885  79.7138248  42.4044930  88.6540964
  80.1326451  41.4337093  88.0643689  78.9949689  43.4392200  88.1395681
  78.7241352  44.2254761  88.7128172  78.6560336  43.5075868  86.7334096
  78.2647686  42.5419681  86.4130704  77.6860312  44.6753578  86.3892478
  77.9961459  45.5981025  86.8795825  77.6149300  44.9480184  84.8937028
  76.8105244  45.6004727  84.5557443  78.5149298  45.4409468  84.5260168
  77.5101161  43.9833894  84.3967883  76.2643290  44.4509965  86.9854119
  75.8951141  43.4776589  86.6632811  76.4357673  44.4696160  88.0618265
  75.5641855  45.1951587  86.6073275  79.9288713  43.7653496  85.8641362
  80.1169044  43.1129849  84.8765888  80.8660157  44.6362790  86.2356095
  80.7215476  45.2101409  87.0532381  82.0608397  44.9243651  85.3974383
  81.7387700  45.0652563  84.3652901  82.5685461  45.8356600  85.7154726
  83.0081442  43.7106940  85.3591553  83.4708567  43.2931438  84.3186992
  83.2650192  43.0245778  86.4426487  82.6562081  43.2678875  87.2104191
  83.9974379  41.7617025  86.5637429  84.9747331  41.8517996  86.0887749
  84.4361874  41.5926321  88.0280816  83.5373704  41.6008416  88.6435024
  84.8799787  40.6181619  88.2348833  85.2439981  42.7267032  88.6378936
  84.7384394  43.6930579  88.6452365  85.2928399  42.4366788  89.6875865
  86.6273290  42.9243041  88.1162245  86.5706445  42.7712259  87.0382542
  86.9511980  43.9415580  88.3351705  87.6060644  41.8156734  88.5190307
  87.7717565  40.9837551  87.9703824  88.3701637  41.9078769  89.6045246
  88.2888686  42.8483333  90.4803481  87.6737173  43.6042857  90.2133822
  88.8505284  42.9019277  91.3181333  89.2982743  40.9885824  89.7763915
  89.4371930  40.2570539  89.0936422  89.7412472  40.9951023  90.6841153
  83.2117503  40.5221773  86.0297333  83.6527389  39.4150247  86.1334789
  81.9587180  40.7129917  85.6376760  81.6083946  41.6397170  85.8335965
  81.1058635  39.6587999  85.0346727  80.2549619  40.0131403  84.4527282
  81.6835329  39.1101381  84.2910746  80.5369405  38.6979645  86.0872296
  79.8883740  37.7122664  85.7157950  80.6824798  38.9564495  87.3943990
  81.2290067  39.7576904  87.6741960  80.0454208  38.1618583  88.5029768
  80.2926038  37.1040267  88.4135184  80.6020238  38.6815265  89.9083600
  80.2366452  39.7077507  89.9480010  80.2788318  38.1440318  90.7994270
  82.1039863  38.8234154  89.9950155  83.0189799  37.8647332  89.3613481
  82.6441538  37.1089732  88.6869141  84.4053822  37.9500166  89.5399964
  85.0982020  37.1833631  89.2243586  84.9581599  39.0339851  90.2961705
  86.3189821  39.2274202  90.3794518  86.8062271  38.4214076  90.1960180
  84.0711551  39.9623774  90.9231179  84.5201668  40.8061900  91.4257141
  82.6769183  39.8059671  90.8406236  81.9963694  40.3986257  91.4334567
  78.5547489  38.3535187  88.5404119  77.8634600  37.3411582  88.7046795
  77.9807228  39.5457334  88.2323368  78.6469071  40.2964566  88.1166253
  76.5514158  39.7840695  88.2015757  76.1028957  38.9374642  88.7228609
  76.3406738  40.9764638  89.1315357  76.6950482  40.6811815  90.1201777
  76.9107454  41.7946923  88.6918898  74.9420280  41.4877726  89.2961480
  74.5302511  41.8480264  88.3536975  74.0655403  40.3982131  90.0092141
  74.4426575  39.9852159  90.9448941  73.0373552  40.7213232  90.1723744
  74.0343645  39.5921653  89.2748919  75.0766769  42.7417219  90.1601220
  75.9430897  43.3156665  89.8332071  74.1200408  43.2613724  90.0969980
  75.3043178  42.2864618  91.1238495  75.9221864  39.9187216  86.8179265
  76.0474449  40.9949650  86.1517888  75.1728984  38.9363364  86.4004462
  75.0063110  38.1666321  87.0328402  74.3377317  38.9079442  85.1862413
  74.5037245  39.7643758  84.5323298  74.7445534  37.6770916  84.4619284
  75.8086006  37.7170797  84.2284645  74.6473325  36.8009383  85.1033709
  73.9285584  37.5209134  83.2907605  74.1404361  38.3040047  82.7774361
  72.8578517  38.9344849  85.6660202  72.4662665  38.3429408  86.7017179
  71.9652263  39.6119703  84.8902036  72.3166672  40.6726019  84.0180276
  72.7148861  40.2123206  83.1136179  73.0903140  41.2708480  84.4998339
  71.0585708  41.4662792  83.6817259  71.1616313  41.6639089  82.6150948
  70.8716000  42.4480120  84.1161734  69.9145056  40.4471046  83.9792908
  69.7492682  39.9032294  83.0486296  68.9816546  40.9122245  84.2970430
  70.4782848  39.6043838  85.0873971  70.2637726  40.1106800  86.0284060
  69.8819491  38.2311570  85.1345775  70.2113840  37.3601509  84.3376986
  68.9759046  37.9881306  86.1038136  68.6289355  38.7878797  86.6140202
  68.5180721  36.6677586  86.4903717  69.3731379  36.0063341  86.6236571
  67.8801182  36.6922292  87.9578464  68.4771149  37.1687971  88.7349545
  66.9523841  37.2584607  87.8834134  67.6260076  35.2901475  88.4391827
  67.7756741  34.3741157  87.6069341  67.2016217  35.0271354  89.5970231
  67.5795520  36.1086791  85.4884734  66.4832283  36.5688639  85.2170895
  68.0960050  35.1861262  84.7114982  68.9781299  34.8066477  85.0241414
  67.3443221  34.5499139  83.5684778  66.8310228  35.3866393  83.0940850
  68.2760418  33.8684862  82.5556611  69.2835084  34.0998197  82.9001198
  68.0122515  32.8249464  82.3834013  68.4500898  34.5316623  81.2237788
  69.3644712  34.1438896  80.7752546  67.3022649  34.2809091  80.1944505
  66.3019595  34.6234524  80.4568230  67.4774359  34.7577475  79.2293255
  67.2725845  33.2262084  79.9230089  68.7391269  36.0378215  81.2552592
  67.9826804  36.6913115  81.6900761  69.6573137  36.0931499  81.8402470
  68.9814514  36.4352500  80.2698742  66.2445026  33.5844729  84.1137866
  65.4196185  33.1190488  83.3679537  66.2895122  33.2602342  85.4261460
  67.0848817  33.5682439  85.9661668  65.2855893  32.3957692  86.0295639
  64.9564841  31.6661964  85.2892753  65.9943341  31.6588105  87.2242634
  65.4291572  30.8010385  87.5897650  67.0088355  31.4584620  86.8800856
  66.1195985  32.6071322  88.3121608  66.6784673  33.3520745  88.0771723
  63.9626649  33.1925715  86.3286744  62.9360903  32.5215853  86.5732416
  63.9665764  34.5309667  86.2534888  64.8253596  35.0120476  86.0273614
  62.7603011  35.3559128  86.5955166  62.0689270  34.8324364  87.2556887
  63.1999346  36.5835351  87.4260946  63.7692774  37.1614149  86.6974124
  62.3120018  37.1595922  87.6847596  64.0390752  36.3947218  88.6616295
  64.7965150  35.6470275  88.4238750  64.6259953  37.3092778  88.7460754
  63.2431680  36.0716395  89.9386818  62.6223568  36.9520548  90.1045565
  62.6398556  35.1670413  89.8613167  64.1161705  35.9343729  91.1779988
  64.7449657  36.8240795  91.1548111  63.4635267  35.9486647  92.0508429
  64.9551451  34.7839995  91.3259846  65.5625896  34.6272176  90.5336364
  65.4837230  34.8608672  92.1826891  64.4733448  33.8995882  91.2522679
  61.8676189  35.7681977  85.4500911  60.9336179  36.5801167  85.6527129
  62.0210024  35.2021805  84.2836345  62.6862811  34.4456839  84.2115297
  61.2390325  35.4302520  83.0847097  61.1713308  36.5150556  82.9996831
  61.9448791  34.9908107  81.7987284  61.2409660  35.3171251  81.0328412
  63.2556172  35.8574218  81.6154639  63.6968673  35.6606101  80.6385757
  62.9139913  36.8914377  81.6744206  63.9155350  35.8182400  82.4815674
  62.1371108  33.4753371  81.7549345  61.2379786  32.9114981  82.0012124
  62.4810919  33.1336370  80.7783737  62.8879131  33.2474015  82.5110742
  59.8552499  34.7742122  83.2690769  59.6312896  33.7138238  83.8270593
  58.8310589  35.3279307  82.5799452  59.0659785  36.0996752  81.9726617
  57.4389101  34.8960466  82.4887435  56.9615013  34.9495046  83.4674350
  56.6540506  35.7313986  81.4359112  57.1823048  35.6327373  80.4885151
  55.6598075  35.2859508  81.4108915  56.5793044  37.2542979  81.5976163
  56.2739463  37.5380024  82.6044883  57.5921838  37.5914282  81.3776197
  55.5564268  37.8100709  80.6439755  55.6346358  37.3463671  79.6603952
  54.6144881  37.5324757  81.1183281  55.7338841  39.2760425  80.5503483
  56.6110926  39.6442421  80.2112504  55.1104046  40.2778602  81.1354369
  54.0953858  40.1130038  81.9247868  53.6335284  39.2172093  81.9931817
  53.5694126  40.8496689  82.3718512  55.6001520  41.4926810  81.0365894
  56.5301137  41.6368851  80.6697047  55.1798207  42.1381449  81.6903930
  57.3133018  33.4504737  82.0045796  57.9078862  33.0624078  81.0312167
  56.3646001  32.7574824  82.6136033  55.8737169  33.3005047  83.3098587
  56.2137060  31.2963486  82.3368267  57.2213903  30.9044739  82.2003150
  55.5152173  30.5353616  83.4443322  55.3637203  29.4641801  83.3046939
  56.0172769  30.8095580  84.3719816  54.1528959  30.9854008  83.5508363
  53.6714999  30.2314515  83.8979088  55.5865446  30.9382728  80.9916467
  55.5821005  29.7613070  80.6466499  55.0619544  31.9843615  80.3280252
  55.0371119  32.8718823  80.8077769  54.6076278  31.8836401  78.9557940
  54.3101050  30.8357947  78.9210789  53.3249557  32.6175118  78.7276279
  52.8955940  32.4722838  77.7366288  52.5733817  32.3388729  79.4657783
  53.5363303  34.1204605  78.8681232  54.5838285  34.5864373  79.3803138
  52.6264729  34.9729085  78.4280448  52.8245424  35.9633291  78.4232958
  51.7510683  34.6650301  78.0287910  55.7015487  32.2324650  77.8933744
  55.4003567  32.1711132  76.7057530  56.9122739  32.7646792  78.2832722
  57.1081445  32.6476435  79.2669466  58.0654491  33.0975663  77.4115118
  57.8018072  33.7933655  76.6143791  59.1373159  33.7602017  78.3112544
  58.7716677  34.5562649  78.9590892  59.5604039  33.0229728  78.9937418
  60.3888627  34.5112170  77.2361103  59.6520517  35.5073367  76.7361453
  58.4790763  31.8562440  76.5436856  58.4664538  30.7292597  77.0883140
  58.8352275  31.9928074  75.2482379  58.3867826  33.1670156  74.3848358
  58.8754799  34.1287190  74.5458872  57.3132131  33.3013352  74.5142413
  58.6527788  32.7385201  72.9251281  59.6040831  33.0164338  72.4725741
  57.8423145  33.1285061  72.3094166  58.6016792  31.2306129  72.9690247
  59.1385286  30.8030233  72.1229315  57.6212389  30.7754208  72.8271096
  59.2045744  30.8163059  74.3733042  58.6590594  29.9744821  74.8004506
  60.6945775  30.6284344  74.3325230  61.4101434  31.6012532  74.3248346
  61.1724694  29.3488330  74.3803620  60.5142138  28.5920622  74.2608151
  62.5865824  29.1650158  74.6623737  62.6042410  29.5681314  75.6747372
  62.9232835  27.6557394  74.6591774  62.7883164  27.3089537  73.6348281
  63.9291223  27.5720905  75.0719694  61.9577581  26.7671682  75.5136223
  61.8216695  27.2444446  76.4837961  60.9752176  26.6003413  75.0707635
  62.6236934  25.4279977  75.5398008  62.5728515  24.9345060  74.5698054
  63.6869135  25.4827681  75.7777886  61.9508033  24.5199922  76.5363860
  62.6283387  23.7079661  76.7991129  61.8884830  24.9454697  77.5380576
  60.5996066  24.1039619  76.1776182  60.5852145  24.1181616  75.1679375
  60.3071932  23.1841597  76.4757377  59.8444992  24.7252684  76.4298880
  63.6462386  29.9375837  73.8185421  64.4636561  30.6121770  74.4297478
  63.3129072  30.1495257  72.6123855  62.5283405  29.5956226  72.2974308
  64.0050782  30.9011499  71.6237473  65.0722112  30.6817285  71.6338633
  63.4493785  30.6775443  70.1936027  62.4270488  31.0238264  70.0387524
  64.1899072  31.2361198  69.6210256  63.6220286  29.6236649  69.9785768
  64.0860898  32.3924279  71.9040971  65.1518288  32.9674733  71.7902148
  63.0142450  33.0226536  72.3902618  62.1901019  32.4686596  72.5771116
  63.1565858  34.3591135  72.9671855  63.6958526  34.9755936  72.2484758
  61.8421403  35.1151175  73.1060380  61.2858260  35.0185404  72.1742853
  61.2399887  34.5858698  73.8437475  61.8624002  36.6157558  73.3831306
  60.8476245  36.8883424  73.6716886  62.5467874  36.7691792  74.2167771
  62.4468845  37.6518866  72.0436427  64.1787845  37.8288832  72.6327274
  64.8980116  37.0952329  72.2693880  64.5452446  38.7183543  72.1201992
  64.3077111  38.0282279  73.6966450  64.0022866  34.4363665  74.2791383
  64.7615755  35.4242407  74.3852508  63.9926125  33.4307457  75.1046425
  63.4340626  32.6129740  74.9116336  64.9354422  33.2874466  76.2430795
  64.9594754  34.2288769  76.7929306  64.3560981  32.3599021  77.3225644
  63.3018023  32.6164596  77.4293334  64.4572985  31.3635281  76.8907757
  65.0431090  32.3859060  78.7017485  66.1306364  32.3585067  78.6278609
  64.7248880  33.2916801  79.2183768  64.7142638  31.1066312  79.4700661
  63.6710756  31.2031435  79.7684496  64.8034134  30.1953696  78.8782565
  65.5367567  31.0813715  80.7566508  66.5517469  30.7993064  80.4758461
  65.4920070  32.0242009  81.3012150  65.1468305  29.9832540  81.6236604
  65.6928129  29.9498063  82.4727102  64.1546468  30.0044192  81.8127857
  65.3077510  29.0654245  81.2318129  66.3970288  33.0014704  75.7890804
  67.3302381  33.5932047  76.3075250  66.6270015  32.1639644  74.7942014
  65.8226994  31.7748601  74.3228311  67.9734237  31.8299915  74.2727156
  68.6349296  31.6592200  75.1224897  67.9855886  30.6221346  73.3771946
  67.2390607  30.6768706  72.5848663  68.9740895  30.5878022  72.9192775
  67.6036973  29.3358279  74.1681763  68.2154938  29.1892487  75.0576709
  66.6007874  29.5217789  74.5535045  67.7371033  28.0695009  73.2981672
  68.6986005  28.1537765  72.7922714  67.7724227  27.1531381  73.8882068
  66.6231453  28.0248621  72.2743053  66.6387925  28.6442785  71.4777054
  65.6590749  27.1552418  72.1490743  65.3798789  26.2239533  72.9769441
  65.8270064  26.1002594  73.8744639  64.6904540  25.5135300  72.7792346
  64.9081124  27.1708294  71.1169613  65.0550101  27.7716071  70.3175489
  64.2034609  26.4478932  71.0748846  68.6322106  33.0458677  73.6063344
  69.7749487  33.4286964  73.8884886  67.8643676  33.8137448  72.8493511
  66.9690612  33.4369938  72.5733308  68.2759575  35.1251361  72.2789726
  69.2652531  34.9762104  71.8456467  67.3745543  35.3778786  71.0873286
  67.4422905  34.4221214  70.5665656  66.3855476  35.4608899  71.5386045
  67.6428894  36.5624786  70.1937224  67.4597101  37.5101772  70.7003453
  68.9906675  36.5267152  69.5377475  69.1823942  37.3665109  68.8709125
  69.7961679  36.5804918  70.2702154  69.1540178  35.6247746  68.9488324
  66.6173133  36.4461670  69.0973369  65.6782151  36.0554540  69.4917503
  66.4435160  37.4197890  68.6404563  66.7643003  35.6377799  68.3806368
  68.4085577  36.3418319  73.2380463  69.2264863  37.2039572  72.9264669
  67.6188734  36.3297165  74.2945656  67.0521581  35.5124315  74.4689327
  67.7875064  37.3265626  75.4314279  67.7676259  38.3515339  75.0607963
  66.6232362  37.1735428  76.4298756  65.7413426  37.4538347  75.8530620
  66.4846774  36.1026648  76.5787742  66.7366274  37.7232550  77.8147251
  67.6120589  37.2457040  78.2537486  66.7118677  38.8101780  77.7327787
  65.3336242  37.3876560  78.9081804  65.7683032  38.6068336  80.1925052
  65.6471571  39.6231777  79.8188993  65.0922267  38.5188325  81.0429647
  66.7779867  38.4640174  80.5787743  69.1700660  37.0312181  76.1466324
  69.9250084  37.9403302  76.3276023  69.5191652  35.7151712  76.4509010
  68.9409816  34.8950553  76.3299894  70.8709543  35.3852935  76.8133866
  71.1599075  35.8979943  77.7315358  70.9139434  33.8732652  77.0155088
  70.4554632  33.7032140  77.9889668  70.4455498  33.3052001  76.2115961
  71.9431431  33.5403729  77.1497796  71.9956686  35.7832127  75.8592744
  73.0430998  36.2791061  76.3411008  71.8968398  35.7022031  74.5264611
  71.0143685  35.3852164  74.1514788  72.8272165  36.3108068  73.5592741
  73.8167489  35.9368822  73.8202763  72.5431115  35.8613817  72.0988652
  71.5365137  36.1387843  71.7863725  73.2140281  36.3828416  71.4171890
  72.8456476  34.4090132  71.7721566  72.1271115  33.9180852  72.4288891
  72.5610272  34.1851374  70.7435615  74.3014238  33.9935031  71.9989631
  75.2547066  34.5342593  71.3944619  74.4645198  33.0140545  72.7762333
  72.9337206  37.8231010  73.7223488  74.0534111  38.3223734  73.7739738
  71.8369695  38.6247464  73.8209519  70.9804682  38.0968609  73.7309384
  71.8381950  40.0470072  73.9073100  72.5093372  40.2915418  73.0841618
  70.3954620  40.5785783  73.7372901  69.7628241  40.0302647  74.4358962
  70.4950004  41.6318512  74.0000242  69.7373616  40.3548147  72.0862653
  69.7825139  39.0271401  72.2307244  72.4621590  40.4565295  75.2554974
  73.0426910  41.5425345  75.3509631  72.2683662  39.7617423  76.4052126
  71.6625413  38.9644884  76.2714836  72.8430060  39.9990698  77.6839373
  72.8751863  41.0871064  77.7359148  71.7893434  39.4208116  78.7361286
  71.3830476  38.5259753  78.2646440  72.2646581  39.2897385  79.7087153
  70.4784757  40.3238694  78.8151451  70.1453662  40.4056945  77.7804834
  69.3458771  39.6320081  79.6113336  69.7064307  39.5225385  80.6340117
  68.3935909  40.1384098  79.4489597  69.2614024  38.6500193  79.1453862
  70.8457201  41.7178026  79.3655686  71.4415618  42.3148294  78.6756834
  69.8874486  42.2368030  79.3627015  71.3251811  41.6581225  80.3422576
  74.3053694  39.6066310  77.8572524  74.7887056  39.8606916  78.9448550
  74.9459466  38.9852979  76.8502430  74.4106990  38.7514493  76.0257178
  76.3617995  38.5032429  77.0437495  76.1179329  37.5988248  77.6018123
  76.8931564  37.8522282  75.7793107  76.5030850  38.4532481  74.9575106
  77.9797967  37.9069359  75.8430989  76.5695744  36.3010514  75.8068647
  77.0231623  35.8543321  76.6914657  75.4992431  36.1361458  75.9324160
  77.1185126  35.6507756  74.6010121  76.6826723  36.0299853  73.6764678
  78.1999956  35.7878108  74.6362243  76.9191603  34.1391431  74.6933367
  77.5917943  33.7513967  75.4583760  75.8617489  34.0532076  74.9457691
  77.2641656  33.4055111  73.4822780  76.6775835  33.8369300  72.7838554
  78.2366893  33.4544741  73.2151109  76.9586391  32.4463201  73.5620982
  77.2990625  39.5374221  77.6917938  77.3975423  40.6354129  77.2492874
  78.0914755  39.1426606  78.7237952  77.8611074  38.1799284  78.9211556
  79.0878066  39.8866293  79.5836975  78.5862186  40.6502330  80.1774237
  79.6849349  38.8375852  80.5818149  80.2571824  38.0712937  80.0599777
  80.3354926  39.3557125  81.2864935  78.6795220  38.1337172  81.5081328
  78.2804136  38.9558767  82.1022517  77.8527800  37.6804696  80.9593540
  79.3379206  37.1214908  82.3844740  79.7677255  36.4296222  81.6603935
  80.1742503  37.5154098  82.9624795  78.3751138  36.2160858  83.1729929
  77.5669009  36.7844156  83.6323045  77.8895076  35.5169534  82.4930765
  79.1652318  35.4830036  84.1714263  78.6181886  35.4063379  85.0166979
  79.5011530  34.5686523  83.9051321  79.9324287  36.0829871  84.4374331
  80.2278364  40.4622488  78.7775281  80.5344223  41.6213230  79.0239387
  80.8075042  39.6459698  77.9110110  80.3761341  38.7330500  77.8914614
  81.8073400  40.0744277  76.9321652  82.5546606  40.6517910  77.4768748
  82.4831588  38.8265966  76.3057976  81.6565428  38.2011386  75.9708238
  83.0593286  39.0889978  75.4178651  83.4422863  38.0662497  77.2646783
  84.2444666  38.7493294  77.5412770  82.9449927  37.8785935  78.2163974
  83.9945663  36.7291971  76.7341163  83.0531380  36.2481377  76.4693437
  84.5361202  36.9225914  75.8084376  84.8353772  36.0048344  77.8584035
  85.6285494  36.6662552  78.2073124  84.2481344  35.9494036  78.7755019
  85.3693789  34.6763122  77.3982342  85.9581769  34.9320948  76.6183283
  85.8707117  34.1733116  78.1166220  84.5768663  34.1709320  77.0298343
  81.2313125  40.9270085  75.8033041  80.2515641  40.5319308  75.1854144
  81.7599982  42.0773225  75.5462300  82.5284756  42.4195252  76.1058377
  81.3807386  43.0747185  74.4798504  80.3951891  43.4921871  74.6875380
  82.5193215  44.1447806  74.5541947  82.6494230  44.3480202  75.6169083
  83.4739520  43.8006076  74.1547631  82.2088067  45.3749921  73.7382889
  81.9313661  45.2091848  72.6969068  81.4850590  45.9289112  74.3347425
  83.4739483  46.2117508  73.7096458  83.7453088  46.4628323  74.7352372
  84.2272776  45.4975165  73.3776122  83.4509650  47.3992323  72.8350988
  83.1218708  48.2813530  73.1998083  83.8185740  47.4418572  71.5484412
  83.9169351  46.3050668  70.9337204  83.8180785  45.4212427  71.4117019
  84.1037810  46.3132497  69.9406551  84.0973600  48.5066516  70.9178453
  84.0665525  49.3477979  71.4759796  84.5172871  48.4290974  70.0019569
  81.1677096  42.5671979  73.0320951  80.0461424  42.8003652  72.4809116
  82.0660674  41.7873923  72.4533772  82.8949720  41.6445665  73.0120471
  81.9533277  41.3875266  71.0605534  81.4600315  42.1426102  70.4478801
  83.3477712  41.4921391  70.4349581  83.9089903  40.7257285  70.9701253
  83.3141680  41.1754891  69.3918950  84.1365908  42.8148830  70.4804138
  84.7205620  43.0934432  69.4430591  84.0882589  43.5737936  71.4796900
  81.3303536  40.0186651  70.9073134  81.2004542  39.5053328  69.7860128
  81.1130167  39.3507769  72.0180784  81.3256595  39.7694591  72.9122648
  80.3698269  38.1103319  71.9619539  80.6546381  37.5516753  71.0713280
  80.6198713  37.2349515  73.2147352  80.3111507  37.8567812  74.0546610
  80.0195160  36.3346869  73.0869967  82.0954233  36.7349549  73.3054647
  82.7771117  37.5703693  73.4672383  82.2230598  36.1206460  74.1969524
  82.5660569  35.8991035  72.1687210  82.4096455  34.6688174  72.3119300
  83.0455989  36.3881763  71.1622851  78.8656726  38.3133980  71.7340813
  78.2538192  37.5557016  70.9192503  78.2203870  39.3824664  72.2421840
  78.7700791  40.0697282  72.7377582  76.7913836  39.7615140  71.8662343
  76.2213460  38.8936358  72.2009425  76.3718245  41.0960068  72.5487686
  77.0895326  41.8925298  72.3491006  75.4020308  41.4018382  72.1565121
  76.4078457  41.0810451  74.0729604  75.7790174  40.3018500  74.5042966
  77.4083126  40.8486878  74.4379824  75.8458529  42.3990361  74.7117874
  74.9439611  42.6418317  74.1503068  75.6993954  42.2529599  75.7824106
  76.7586758  43.6090847  74.6150112  76.4635874  44.3715411  74.0227662
  77.8504930  43.8821432  75.3478743  78.3036300  43.2078912  76.3738919
  77.8283787  42.3497936  76.6134638  79.0753204  43.5467487  76.9299660
  78.5556756  44.9539150  75.1360328  78.2615201  45.5647025  74.3871075
  79.0886735  45.3912201  75.8740053  76.5955631  39.9047373  70.3668039
  77.5652350  40.3338528  69.6239490  75.4079780  39.6704978  69.8330151
  74.2252754  39.1678730  70.5089203  74.0617668  39.7150254  71.4366855
  74.5074188  38.1644692  70.8273411  73.0841924  39.3119552  69.5616195
  72.6125498  40.2735097  69.7659412  72.3388440  38.5352946  69.7346136
  73.7988591  39.1330988  68.1645945  73.1525447  39.5863756  67.4138049
  74.1216453  38.1144992  67.9502402  75.1228487  39.9149247  68.4259847
  75.9209279  39.5414007  67.7846374  74.9166622  41.4201836  68.1265907
  74.5825364  42.2435696  68.9849458  74.9201987  41.6516460  66.8106479
  75.1039339  40.9058199  66.1544515  74.4829057  42.9559646  66.2411674
  74.6016011  43.6843677  67.0431108  75.3633029  43.3511666  64.9933244
  75.2293754  42.5502803  64.2659610  74.9821191  44.2441947  64.4985966
  76.9477078  43.5012726  65.2102747  77.4041418  42.5833484  65.5807826
  77.5423615  43.6570033  63.7926256  77.2005987  42.8861667  63.1016835
  77.3186605  44.6173865  63.3289372  78.6058773  43.5539133  64.0110945
  77.3390712  44.7575407  65.9194673  76.8163973  45.5907532  65.4486489
  76.8744732  44.7248702  66.9044644  78.4249748  44.8253044  65.9832436
  72.9362168  43.0867238  66.0385439  72.2466349  42.0794402  65.8687272
  72.3301610  44.2876219  65.9798053  72.8494292  45.0470826  66.3943629
  70.8753700  44.4895299  65.8794197  70.4815201  43.9371380  66.7330762
  70.4793285  45.9803441  66.0232959  71.1453155  46.6292318  65.4525245
  69.5215321  46.1175576  65.5216910  70.2754895  46.4062839  67.4697768
  69.0217998  46.3247227  68.2018192  68.1882716  45.8259714  67.7292858
  68.8192693  46.9307393  69.4048629  67.8574449  46.7712689  69.8690139
  69.8299574  47.7571103  70.0345355  69.6759544  48.2358136  70.9901820
  71.0212560  47.8382528  69.3440765  71.7269960  48.5427476  69.7586378
  71.2708715  47.1688309  68.0989760  72.1975045  47.3705384  67.5818006
  70.2196799  43.8001717  64.6872172  69.1638196  43.2070874  64.9027215
  70.7555898  43.7974147  63.4437370  72.0506714  44.2886037  63.0124401
  72.6785043  43.4204094  63.2152270  72.3460048  45.1917886  63.5463400
  71.9210571  44.4761560  61.5117168  72.8810276  44.6141980  61.0138111
  71.2481867  45.2995702  61.2696188  71.1197139  43.2430749  61.1178336
  71.8093876  42.4005079  61.0710028  70.4856439  43.5641593  60.2902244
  70.1548109  43.1075408  62.3200655  69.2669124  43.7185251  62.1568501
  69.7490509  41.6553006  62.6207153  68.6479363  41.2382593  62.3100305
  70.6801559  40.8657765  63.2186453  71.5645805  41.2579354  63.5098045
  70.4766396  39.4579922  63.4709299  70.1794117  38.9457467  62.5561457
  71.8239923  38.7246190  63.7713051  72.4762048  38.9787975  62.9359643
  72.3503140  39.1416664  64.6299260  71.7484632  37.1828657  63.8238985
  71.0040591  36.9621006  64.5884914  71.4015832  36.8508961  62.8458354
  73.0445074  36.4642060  63.9473755  74.1122553  36.9957144  63.9263452
  73.0893622  35.1539962  63.9437168  73.9336908  34.6294927  64.1224154
  72.2041472  34.6827359  64.0595359  69.4225368  39.1802450  64.5039642
  68.6222640  38.3163298  64.3635082  69.4076457  40.0515663  65.5025064
  70.1965511  40.6800808  65.5588952  68.2623192  40.1623896  66.4809318
  68.2816496  39.1248704  66.8162471  68.5714370  41.2012919  67.6675161
  68.6576366  42.1802269  67.1966564  67.3053857  41.2154400  68.6248603
  67.3568886  42.0124543  69.3664077  66.3808839  41.4295626  68.0889266
  67.2943809  40.2548050  69.1402605  69.8818268  40.8449574  68.4571903
  69.6207601  40.0295961  69.1320822  70.7461756  40.6251554  67.8296226
  70.3426177  42.0422205  69.2915996  70.4269645  42.9398865  68.6797791
  69.6574036  42.3336347  70.0872726  71.3460946  41.7986060  69.6405837
  66.9270225  40.4314356  65.8355815  65.9697315  39.6831145  66.0196748
  66.9278819  41.4699355  64.9898964  67.7197104  42.0860503  64.8744664
  65.7442383  41.8028339  64.2547395  64.9430283  41.9457878  64.9802094
  66.0340055  43.1937772  63.4631830  66.1698267  44.0379980  64.1382250
  66.9706992  43.1967961  62.9060998  64.7843009  43.5254128  62.4908608
  64.6728468  42.8572669  61.6367578  63.4491028  43.7483655  63.2023691
  63.5887947  44.5555440  63.9216591  62.6642835  44.0913377  62.5276998
  63.0752946  42.9671498  63.8652429  65.1481463  44.8714794  61.9113126
  65.3811177  45.5302283  62.7481168  66.0066982  44.7152064  61.2585167
  64.3655391  45.3509144  61.3222821  65.2940621  40.6127106  63.4537869
  64.1292366  40.2237364  63.6792235  66.1263613  40.0304440  62.5991241
  67.0340686  40.4516387  62.4645558  65.6721427  38.8031079  61.8931181
  64.9705837  39.1106279  61.1177321  66.9210105  38.2317671  61.1032340
  67.7754502  38.1394273  61.7737347  66.5929684  37.2865405  60.6705203
  67.1446168  39.0373333  60.4041187  65.0064708  37.7164348  62.7224139
  64.0182025  37.1027346  62.3532744  65.6298539  37.4315605  63.8552502
  66.4606110  37.9290668  64.1416418  65.2868222  36.3197044  64.8132827
  64.9956591  35.4028333  64.2998106  66.5566415  35.9161313  65.5309808
  67.2750425  35.9320228  64.7111457  66.8394797  36.6160978  66.3172240
  66.4652207  34.5991467  66.1108184  66.8837657  33.9561789  65.5331173
  64.1597894  36.7463259  65.7547370  63.4543440  35.8169127  66.2034327
  63.8988696  37.9711365  66.0279433  64.5992715  38.6469055  65.7604523
  62.6323150  38.3978324  66.6964312  62.2642311  37.6035244  67.3466234
  62.9026939  39.6787209  67.5374782  63.4217097  40.4354928  66.9496926
  61.5747629  40.2764336  67.9534444  61.1466544  40.6966109  67.0435586
  60.8413973  39.5396529  68.2812675  61.6036386  41.1415696  68.6158687
  63.7235232  39.4882471  68.8411376  63.3632642  38.6939234  69.4939318
  64.6401661  39.0280659  68.4745397  64.0690739  40.6264793  69.7757868
  63.2474221  40.6997928  70.4877528  64.9970207  40.3495590  70.2763853
  64.1839149  41.5046282  69.1405530  61.5570278  38.5074497  65.6279194
  60.3956262  38.2308543  65.9951597  61.8198371  38.8264452  64.3813782
  62.7371374  39.1939623  64.1730556  60.8346390  38.7350695  63.3535697
  59.9594885  39.2777772  63.7111813  61.2718163  39.3735080  62.0373079
  62.2882244  38.9812165  61.9960050  60.8315066  38.9239076  61.1473462
  61.2270555  40.9275477  61.9868098  61.3838798  41.3273236  62.9887916
  62.0522414  41.2228310  61.3394575  59.8360356  41.4159962  61.4719259
  58.8286457  41.0707759  62.1403970  59.7077420  42.1319506  60.4592739
  60.3741620  37.2614796  63.0292402  59.1351554  36.9838635  62.8788876
  61.3316440  36.3439385  63.0543718  62.2738223  36.7010414  62.9894670
  61.0862295  34.9319229  63.1067248  60.5303285  34.6289133  62.2193730
  62.3895554  34.1983078  63.2620187  63.0274338  34.4767210  62.4238121
  62.9288430  34.5679226  64.1351669  62.2261793  32.6806102  63.3806289
  61.6225291  32.3908207  64.2403530  61.6550889  31.9990634  62.1600386
  62.2014347  32.1700536  61.2313440  61.5121375  30.9426344  62.3829570
  60.6804536  32.4420510  61.9584198  63.6366621  32.0297402  63.6515284
  64.3605174  32.2598233  62.8696172  63.9900876  32.3240971  64.6388892
  63.3834110  30.9702424  63.6381026  60.0932365  34.4956863  64.2033020
  59.0989771  33.7782518  63.9238078  60.2989048  34.8863609  65.3896269
  61.2065155  35.1813634  65.7188523  59.3233591  34.7064337  66.4445022
  59.0881131  33.6557803  66.6168009  59.9638005  35.2545580  67.7455094
  60.6156773  36.1195891  67.6243199  59.2242543  35.5837472  68.4749776
  60.9031247  34.1656425  68.3530448  61.1996771  33.4651313  67.5722979
  62.0790852  34.7678268  69.1745879  61.6640314  35.5048422  69.8622656
  62.5756055  34.0277206  69.8014838  62.8240256  35.2891714  68.5739145
  60.0279637  33.1965776  69.2503967  59.1870706  32.7303103  68.7387156
  60.7178551  32.4416501  69.6285016  59.5313800  33.7481033  70.0491664
  57.9931439  35.3636248  66.1228763  57.0238505  34.6455045  66.0665329
  58.0757516  36.6133699  65.6790540  59.0021136  36.9844334  65.5234411
  56.9785231  37.5075558  65.4037815  56.4439627  37.5462724  66.3521023
  57.4119545  38.8686132  64.8625615  57.6326913  38.7925519  63.7978142
  56.5539216  39.5234661  65.0141042  58.3093309  39.2256220  65.3674442
  55.9836739  36.8352670  64.4391614  54.8068039  37.2113002  64.4756019
  56.3714075  35.8983453  63.5972336  57.3403575  35.6206669  63.6685965
  55.6337702  35.1855661  62.5383394  54.6223154  35.5826936  62.6208864
  56.1154326  35.6242435  61.1516605  55.2325154  35.6776296  60.5150663
  56.4175851  36.6702215  61.2039562  57.4080639  34.9927454  60.5595537
  58.2161990  35.3380294  61.2043775  57.3626574  33.9134129  60.7080514
  57.7420963  35.3591388  59.0906530  56.9923377  34.8326839  58.4997763
  57.6635203  36.4232888  58.8675642  59.0856096  34.9779846  58.5814739
  59.1321064  34.0882433  58.1065345  60.2062007  35.5724744  58.8423424
  60.3737452  36.7291797  59.3831268  59.5049184  37.2275388  59.5162251
  61.3050649  37.0150459  59.6494521  61.2955223  34.9283700  58.6863231
  61.2367353  34.0113708  58.2688059  62.1212719  35.3218622  59.1147428
  55.5549836  33.6638997  62.7299828  55.1903940  33.0026796  61.6994275
  55.8820267  33.0421622  63.8834035  56.1940649  33.6339137  64.6395988
  55.9566822  31.5823951  64.0006022  55.1399869  31.1289363  63.4385186
  57.3078520  31.0490661  63.4559515  57.2432342  29.9644533  63.3701053
  57.5802783  31.4773179  62.4916806  58.3092580  31.1732596  64.3598879
  58.6053408  32.0848418  64.3120242  55.6382267  31.0258925  65.4253566
  55.8333151  29.8393323  65.7316053  55.0171860  31.8323843  66.2663492
  54.5429124  32.6268731  65.8603529  54.6895351  31.5137986  67.6909814
  55.4763453  30.8185684  67.9855162  54.8784191  32.8443609  68.4960826
  55.8249406  33.3722367  68.3807127  54.1612452  33.5857467  68.1430632
  54.6718535  32.5800473  69.9519861  53.7700140  32.0393010  70.2395968
  55.8092931  31.7206397  70.6007817  55.4994422  31.4654146  71.6148441
  55.8054065  30.7868456  70.0388143  56.7765957  32.2220006  70.6126128
  54.5953962  33.9357373  70.7181439  53.8682803  34.6305462  70.2994302
  54.2897350  33.8397813  71.7589982  55.4642842  34.5887754  70.6279231
  53.2983606  30.8947670  67.7594446  53.2096917  29.7100357  68.1427155
  52.3139768  31.6526128  67.6374640  72.8639487  62.7644972  50.3780681
  72.2981805  62.8963440  49.5514492  73.4369775  61.9356287  50.3123871
  73.5528190  63.5030639  50.3946764  72.0124567  62.7274032  51.5534396
  72.6813993  62.5355952  52.3922522  71.3695334  64.1210262  51.7773739
  70.7972103  64.3818887  50.8874620  70.6801000  64.0920853  52.6214698
  72.3370023  65.2504666  52.0446047  71.9172552  66.4199352  52.0203229
  73.5853066  64.9856917  52.2567356  70.8975145  61.6343007  51.5439125
  71.0304069  60.5813275  52.2639911  69.8253484  61.7951191  50.8268189
  69.8190265  62.6044190  50.2227198  68.5758008  60.9592697  50.8877419
  68.5018081  60.4430953  51.8442852  67.3098629  61.7953721  50.8604461
  67.2291223  62.3240380  49.9104260  66.4590955  61.1252345  50.9844641
  67.3891771  62.9425693  51.8940286  67.9052934  64.1886585  51.6953164
  68.3348204  64.5269995  50.7645931  67.7405801  64.9250260  52.8976398
  68.0722993  65.8657708  53.0594654  67.3747466  64.0590711  53.8780693
  67.3755415  64.2567645  55.2642795  67.7375622  65.1631884  55.7275514
  66.8747125  63.1892911  56.0291690  66.9441424  63.1764966  57.1062431
  66.3962691  61.9984478  55.3478092  66.0856623  61.1748081  55.9733226
  66.5361764  61.8006837  53.9973470  66.2706590  60.8669906  53.5242521
  67.0203458  62.8322362  53.2569758  68.5591296  59.8666315  49.7844732
  67.6761630  59.0273915  49.7345097  69.6419349  59.8338938  48.9353526
  70.3752307  60.5109062  49.0885531  69.7748599  58.7948520  47.9620853
  68.7745412  58.7120577  47.5378394  70.6297034  59.2941598  46.8001725
  70.3674504  60.3224208  46.5558294  71.6617317  59.2765769  47.1507440
  70.6549956  58.3584885  45.6492857  71.2872519  57.5584186  46.0344171
  69.6765048  57.9220409  45.4478153  71.1592448  59.0095363  44.3512274
  70.9608326  60.2219727  44.0689657  71.7907792  58.2798194  43.5636904
  70.1632782  57.4336242  48.4476099  70.9198235  57.3755717  49.4350065
  69.7617843  56.3228847  47.7782143  69.0915583  56.5011583  47.0438727
  69.8572549  54.9901887  48.2063754  70.5530561  54.8133592  49.0259979
  68.4691239  54.5446342  48.7509787  67.7616980  54.9430134  48.0237610
  68.5118526  52.9984425  48.8821940  68.6945204  52.4712050  47.9453557
  69.2096447  52.7857945  49.6925390  67.4928691  52.8175585  49.2229501
  68.0379040  55.3003858  50.0715581  68.6865125  55.0847681  50.9206477
  68.1963278  56.3619323  49.8836171  66.5872026  55.1227038  50.4831116
  65.9467977  55.5075706  49.6895418  66.3577326  54.0820800  50.7134280
  66.3316306  55.6639562  51.3933120  70.4006740  54.1587027  46.9330147
  69.7631928  54.1744522  45.8601710  71.5897076  53.5533017  47.0169549
  72.4824391  53.7603494  48.1559700  72.0788099  53.2988245  49.0564938
  72.5905894  54.8317156  48.3245051  73.8253806  53.1412853  47.8392399
  74.1569007  52.4981995  48.6546987  74.5953327  53.8781520  47.6096941
  73.5060084  52.2842902  46.6123366  73.3467102  51.2819390  47.0100302
  74.2978251  52.1696694  45.8730103  72.2229064  52.7709776  45.9719792
  72.5621208  53.4182136  45.1625219  71.3306862  51.6694610  45.4640163
  70.3988466  51.1360277  46.0524999  71.6223417  51.0804634  44.3066573
  72.3717895  51.5809777  43.8506449  71.0455716  49.8200537  43.7245718
  69.9706851  49.9945754  43.6729358  71.5734440  49.4997868  42.3580756
  71.2842417  50.4011800  41.8173758  72.6330983  49.2432397  42.3512581
  70.9441169  48.2895248  41.7291184  69.8193201  48.0309895  42.0816983
  71.6195410  47.7139374  40.8551016  71.2993731  48.6463708  44.6929247
  72.3376991  48.3810967  45.3397484  70.2410078  47.8699479  44.8402992
  69.4269953  48.1230060  44.2997687  70.2314690  46.5605016  45.5966942
  69.4462693  45.9547382  45.1457428  71.2242064  46.1247618  45.4864208
  70.0610739  46.7074427  47.1084838  70.2706908  45.7136654  47.7726678
  69.3981791  47.8164875  47.6082919  69.2486947  48.6169499  47.0111484
  69.0133426  48.0752444  48.9378120  69.4101071  47.1853877  49.4264417
  69.6945757  49.3517192  49.4179887  69.2815804  50.2339968  48.9296997
  69.4033614  49.5119388  50.4561409  71.2586913  49.3239427  49.3428428
  71.4628371  48.2948238  49.6381745  71.5427472  49.5131247  48.3075692
  71.9187156  50.1713374  50.3769198  71.2450594  51.0188324  50.9736188
  73.1719318  50.0228025  50.6733663  73.6280225  50.6454889  51.3255189
  73.7261221  49.3593540  50.1526465  67.5178718  48.1739322  49.1174830
  66.9472567  48.1034751  50.1666561  66.7104594  48.2969054  48.0520874
  67.0446519  48.4464160  47.1109972  65.2573063  48.4058874  48.1668183
  64.9102729  48.5970211  49.1823973  64.6559213  49.6420186  47.4824018
  64.6473525  49.5932083  46.3933371  63.1973019  49.9063521  47.9573243
  63.1193429  50.0150720  49.0394761  62.6904904  50.7597036  47.5073340
  62.6256773  49.0509264  47.5981792  65.3862323  50.9028244  47.9855315
  64.9389152  51.2772456  48.9056387  66.4548797  50.8200712  48.1817726
  65.2921691  52.0376544  46.9385650  65.7662432  52.9128541  47.3844274
  65.7407119  51.7757835  45.9800918  64.2419132  52.2740410  46.7655737
  64.6114743  47.1304522  47.6439838  64.6685741  46.7815706  46.5477880
  64.0587596  46.3272237  48.5926352  64.1440443  46.6393583  49.5494275
  63.3058868  45.0492165  48.2610196  63.8368136  44.5529244  47.4476968
  63.3435417  44.1015403  49.4779818  62.8331237  44.6727910  50.2531393
  62.7449956  42.7111186  49.5363179  62.9495308  42.1839833  50.4684057
  61.6647431  42.8532650  49.5067735  63.1104059  42.1600951  48.6693038
  64.6855345  43.9120255  49.8223489  65.0893024  44.7524232  50.0512968
  61.8722018  45.3269974  47.8278235  61.0798915  45.8145608  48.6070067
  61.5531385  45.0248801  46.5349238  62.2133754  44.5250691  45.9568466
  60.3205963  45.4402677  45.8835191  59.8733475  46.1989395  46.5259477
  60.6172952  46.1525048  44.4828561  61.0900977  45.4502294  43.7969712
  59.3540113  46.7024222  43.8363171  58.8044692  47.3653489  44.5052399
  59.6394174  47.2294179  42.9250762  58.6761978  45.8859149  43.5899828
  61.4679473  47.3275714  44.7288714  61.4147568  47.9815627  43.8581704
  60.9929651  47.9724794  45.4670844  62.4800611  47.0139711  44.9861254
  59.3377523  44.2949831  45.6555129  59.6790223  43.3538645  44.9340738
  58.1577245  44.3085298  46.3418561  57.9931711  45.1340873  46.9001087
  57.0032030  43.3985326  46.0604486  57.4079218  42.5384480  45.5268624
  56.6246044  43.0211091  47.0099562  55.8248620  43.9658757  45.2400418
  56.1352117  44.5994795  44.2021616  54.5496431  43.7028049  45.6429568
  54.5078420  43.1790165  46.5049500  53.3605752  43.8100318  44.7098379
  53.5813652  43.1286466  43.8887892  52.0503765  43.3199903  45.4033622
  52.2047211  42.2725571  45.6631071  51.8281974  43.9596604  46.2575458
  50.7155209  43.4953700  44.5708771  49.8052659  43.4705966  45.1697661
  50.7284140  44.5268801  44.2193279  50.6686646  42.6324730  43.3599195
  51.3093356  41.5740514  43.3061937  49.9470930  43.0728256  42.3319093
  49.9087795  42.5687918  41.4571499  49.7116693  44.0540755  42.3786248
  53.2351063  45.2215976  44.0141761  53.1636223  46.1789749  44.7798887
  53.0420419  45.3270288  42.7299065  53.1306338  44.4392807  42.2559816
  52.6267655  46.4579785  41.9325236  53.2037843  47.3639483  42.1174098
  52.6985396  45.9359527  40.4690912  53.6797633  45.5644222  40.1732278
  52.0277312  45.0770227  40.4727674  52.2558475  47.1338435  39.6023667
  51.2543641  47.4251284  39.9187040  52.9818876  47.9163627  39.8256792
  52.2165444  46.6360899  38.1157024  53.2365332  46.3486616  37.8598025
  51.6022718  45.7353224  38.1297386  51.6991780  47.7260269  37.2130932
  52.4197741  48.1426987  36.6404188  50.4701212  48.1572979  37.1339382
  49.5012278  47.8442368  37.8451739  49.4853423  47.2036530  38.6262213
  48.5818429  48.1835326  37.6020652  50.2152576  48.9750295  36.1243592
  51.0101348  49.3004173  35.5921637  49.3966824  49.5592117  36.2136947
  51.1709447  46.6642354  42.3817697  50.3143657  45.8621742  42.0766545
  50.9295735  47.7478077  43.0419212  51.6886901  48.4138917  43.0520699
  49.6964362  48.2346625  43.5264929  49.1047336  47.3290762  43.6632498
  49.8449722  48.9535953  44.8643186  50.3078151  49.9256442  44.6988758
  48.4852123  49.2886114  45.5073981  47.8386541  49.7860178  44.7845106
  47.9782308  48.4177764  45.9214864  48.6652356  50.0091356  46.3054943
  50.6990961  48.1084674  45.8617535  51.7084198  47.9362160  45.4879658
  50.7641364  48.6199077  46.8214412  50.2039852  46.6992686  46.2269080
  49.2295174  46.8283842  46.6969992  50.1286975  46.1831920  45.2688006
  50.7880837  46.2137102  47.0085697  48.8111270  49.0312161  42.5956465
  47.7277355  48.5753818  42.2398842  49.3955985  50.0106589  41.9199676
  50.2425918  50.3799775  42.3266310  48.7466336  50.6501987  40.7309178
  48.5235148  49.9749354  39.9051227  47.8188685  51.0542570  41.1360063
  49.6154392  51.8084022  40.1751126  50.7741817  51.8462684  40.5753925
  49.2740760  52.4848258  39.0658550  48.3377497  52.3017901  38.7352661
  49.9657497  53.6736673  38.5517584  51.0096565  53.3715155  38.4767263
  49.3046471  54.0268303  37.1968683  49.8152223  54.9182110  36.8328197
  49.6084718  53.2991053  36.4448185  47.8788706  54.1737975  37.2917586
  47.6879096  55.1007491  37.4504016  49.9255490  54.9043633  39.5178936
  49.0670355  54.9209532  40.4464460  50.8284747  55.8291852  39.3699926
  51.3592601  55.6597601  38.5275492  50.8057282  57.1578616  40.0305739
  49.8162896  57.1440398  40.4879460  51.5896884  57.4319069  40.7361400
  50.6852597  58.3573504  38.9527205  50.2820435  58.3085592  37.7776009
  51.0792278  59.6001664  39.3634499  51.3663306  59.7327428  40.3225378
  51.1798851  60.8133876  38.5707348  50.1653239  61.0051356  38.2217199
  51.5221811  62.0215919  39.5009890  51.4094940  62.8740027  38.8303927
  50.7536651  62.0256542  40.2733443  52.8303845  61.9922140  40.0663073
  52.8166913  62.2238319  40.9974392  52.2332650  60.7240834  37.3977695
  51.9805490  61.0244729  36.2233493  53.3506431  60.2390931  37.8063044
  53.3058534  59.8909960  38.7536709  54.4738578  59.8107520  36.9793204
  54.1920233  59.7806400  35.9266041  55.6931882  60.7644678  37.2644023
  55.5953430  61.1779856  38.2682999  56.5758630  60.1283965  37.2018206
  55.8291082  61.9282931  36.3130757  56.1605312  61.6836499  34.9513406
  56.3269579  60.6821295  34.5831682  56.3417993  62.7618464  34.0529787
  56.6641384  62.6897896  33.0247543  56.0798394  64.0804314  34.4167349
  56.2092338  64.8293785  33.6493305  55.6606425  64.3455144  35.7381716
  55.3481179  65.3282535  36.0575008  55.6352873  63.3216912  36.7237158
  55.2262950  63.5287489  37.7012747  54.7690105  58.3642414  37.4027613
  54.7511223  58.1290191  38.5912016  55.0383771  57.4603534  36.5173015
  55.0434339  57.7017811  35.5365889  55.5338304  56.1317597  36.9370953
  55.8855670  55.5386252  36.0932696  56.4318575  56.2828537  37.5356300
  54.4563836  55.2251438  37.6114818  53.2601715  55.6301021  37.5548404
  54.8658972  54.1528505  38.3296988  55.8484731  53.9244176  38.3934328
  53.9827785  53.1742518  38.9234807  52.9129925  53.3861116  38.9328271
  54.0281450  51.8412515  38.0849314  55.0603826  51.5766766  37.8584370
  53.0903189  50.6980363  38.4333227  52.0393736  50.9855994  38.4003010
  53.3587921  49.9561376  37.6806584  53.3011971  50.4554449  39.4756445
  53.4810063  52.2822963  36.8498035  54.1725659  52.7574757  36.3832505
  54.3251643  52.8152446  40.4036006  55.4167787  53.1649681  40.8070165
  53.3983088  52.2796665  41.1876923  52.5378716  51.9778077  40.7519182
  53.5526903  52.1535728  42.6173775  54.4810892  52.6058634  42.9657419
  52.3631603  52.8892280  43.3704670  51.4161463  52.3912061  43.1608223
  52.5791851  52.8362550  44.9049924  51.7975058  53.5104569  45.2559385
  52.5653737  51.8258846  45.3132361  53.5315380  53.2770572  45.1996983
  52.0924911  54.3746435  42.9389663  52.9605814  54.9630357  43.2335419
  51.9064087  54.5197316  41.8745252  51.2619437  54.7681144  43.5251144
  53.5779607  50.6844234  43.0613622  52.7422781  49.8087756  42.6606784
  54.5314618  50.4095144  43.9347823  55.2350482  51.1326738  43.9516238
  54.9836066  49.1064894  44.4157938  54.1275534  48.4588963  44.2230188
  56.2111208  48.5788534  43.6542632  57.0237993  49.2436972  43.9460687
  56.5181457  47.6003351  44.0209916  56.1976682  48.6065813  42.2183136
  55.9885029  47.4207701  41.4804568  55.9160478  46.4631582  41.9739088
  55.8420970  47.4400404  40.0884036  55.7106226  46.5447493  39.4999061
  56.0327175  48.6199139  39.4084961  56.1854870  48.6258284  38.0359527
  56.5913312  49.4250736  37.6919153  56.3823827  49.7947427  40.1557400
  56.6138728  50.7342270  39.6766151  56.4025053  49.8082706  41.5680364
  56.7182483  50.7231282  42.0483154  55.2154294  48.9909115  45.9500891
  55.9817570  49.7221244  46.5492507  54.6937443  47.8816000  46.5576140
  54.0958885  47.2365794  46.0603255  55.0104984  47.4682481  47.9000361
  54.8154415  48.3221922  48.5494246  54.0992558  46.2642893  48.2780337
  53.0565768  46.4461066  48.0181299  54.4667624  45.3568875  47.7984226
  54.2932991  46.0346807  49.8168774  55.2569709  45.5622674  50.0097825
  54.3163677  47.0009075  50.3205853  53.2732945  45.0734140  50.4211876
  52.2935851  45.3190802  50.0115002  53.4772178  44.0330601  50.1683060
  53.3478584  45.3179268  51.9693887  54.2563768  44.8348172  52.3288612
  53.4529467  46.3517354  52.2983296  52.1994162  44.7250405  52.6716203
  51.3397206  44.9682315  52.2007725  52.2944788  43.7221966  52.7486483
  52.1486688  45.1111257  53.6036621  56.4786597  47.1602407  47.9941633
  57.0319679  46.8699076  46.9702675  57.1160445  47.3459118  49.1346140
  56.5922485  47.7171911  49.9134410  58.4932813  47.0467713  49.2916230
  58.6994928  46.0497749  48.9029884  59.0873487  47.8764388  48.9082475
  58.8757328  47.0000684  50.7638195  58.0526301  47.2704705  51.6642743
  60.1735877  46.8212570  51.0457503  60.7485855  46.8040790  50.2165383
  60.6740392  46.5216737  52.3906184  59.9138177  46.8819094  53.0840637
  60.7853230  45.0401428  52.6650230  59.9265446  44.4585959  52.3294177
  61.6746877  44.5987199  52.2145440  60.7776462  44.6553615  54.1769689
  61.3698229  45.4426497  54.6422314  59.7596157  44.5827966  54.5600932
  61.4563291  43.2881923  54.4605723  60.8860431  42.5872563  53.8508276
  62.5184361  43.3005664  54.2189412  61.3404589  42.8908557  55.9542281
  61.9010189  43.6102271  56.5518261  60.3093028  42.9929860  56.2933261
  61.9356947  41.5304234  56.1898190  62.9088020  41.4743364  55.9264134
  61.8397533  41.2961194  57.1671791  61.5069094  40.8276136  55.6049543
  62.0380361  47.2126634  52.6164670  62.9465973  46.8477535  51.8973409
  62.1861351  48.1235334  53.5539917  61.4244960  48.3484381  54.1778633
  63.4233537  48.9263867  53.8535478  64.3786802  48.4088334  53.7776542
  63.4395626  50.1518214  52.9489922  63.2112875  49.8105073  51.9393293
  62.5883420  50.7681199  53.2366199  64.7161722  50.9748482  52.8588762
  65.7845931  50.7299010  52.0102287  65.8145243  49.9253230  51.2904590
  66.7349208  51.7327009  52.1276284  67.6944810  51.5443481  51.8749578
  66.3277007  52.6761309  53.0812340  66.7770683  53.9549611  53.5246570
  67.5893445  54.4758448  53.0397017  66.0741526  54.7469578  54.5395328
  66.3838769  55.7397362  54.8316148  64.9828516  54.1263628  55.1696804
  64.4830919  54.7121391  55.9274768  64.4350771  52.9726904  54.6040380
  63.5349671  52.5797835  55.0518284  65.1228574  52.1684321  53.6784179
  63.2516342  49.3216793  55.3177794  62.4241933  50.1606319  55.6420775
  63.9606004  48.5890009  56.2366626  64.6177568  47.8852197  55.9318044
  63.8936610  48.6506929  57.6458876  64.3345621  47.7224626  58.0069343
  64.7540034  49.7804397  58.1584178  64.5257562  50.7130979  57.6421303
  64.5606861  49.9496487  59.2173634  66.2335259  49.6433636  57.9411572
  66.8832764  49.9696681  56.7262565  68.1856346  49.8907297  56.9760298
  68.9105729  50.2758949  56.2732729  68.4051760  49.4231465  58.1984784
  69.2718725  49.3055349  58.7028342  67.1553725  49.1946634  58.8410844
  67.0927476  48.9466031  59.8903457  62.4222066  48.5579069  58.1149822
  61.9595201  49.4761549  58.7394627  61.6354090  47.5667970  57.6742016
  62.1298247  46.9027571  57.0957268  60.0989016  47.5403928  57.6890545
  59.8455323  46.4826465  57.7559338  59.6829184  47.9783051  58.5967900
  59.4904876  47.9998967  56.3815830  60.1543145  48.1858125  55.3118231
  58.1811176  48.0576787  56.2957371  57.6764891  47.7637158  57.1189879
  57.4017411  48.2851235  55.0890097  57.7539535  47.6215985  54.2986718
  55.9089257  47.8540463  55.2244522  55.3677944  48.4833983  55.9316763
  55.4340707  47.9375758  54.2463532  55.6973869  46.3473760  55.6332430
  55.4650216  46.0602322  56.8314661  55.7942702  45.4519982  54.7623118
  57.5530117  49.6967454  54.3820234  57.2533590  50.6714701  55.0277022
  57.9235672  49.8028717  53.0868872  58.0020923  48.9763514  52.5121664
  57.9147764  51.0620133  52.3076785  57.5001931  51.8407557  52.9480736
  59.3543683  51.5310073  51.8567308  59.1197490  52.3290197  51.1527976
  60.0932927  52.1723306  53.0104795  59.4768044  52.9453371  53.4701665
  60.3176940  51.4602981  53.8048452  61.0190794  52.5882552  52.6132054
  60.1628013  50.4300447  51.2144541  60.3738230  49.7645545  52.0516426
  59.5316989  49.8987609  50.5011502  61.0337978  50.7884356  50.6664586
  56.9765466  50.9291554  51.1798790  56.6420571  49.8614200  50.6028635
  56.5663158  52.0460419  50.6916074  56.7234884  52.8550790  51.2753247
  55.9243110  52.2896202  49.4377344  55.5367734  51.4050039  48.9337278
  54.5997999  53.0187971  49.6743366  53.8896445  52.3287093  50.1301833
  54.7427700  53.8812467  50.3264525  54.2931737  53.4042581  48.7017544
  56.8256172  52.9188704  48.3843812  57.3787668  53.9617174  48.7072091
  56.7787471  52.3581122  47.1491511  56.2834257  51.5049778  46.9333467
  57.7959891  52.6939046  46.1150954  58.3433321  53.5686357  46.4689771
  58.8449163  51.5289261  45.9813356  58.2522361  50.7370188  45.5214032
  59.9903626  52.1207872  45.0959457  60.6346802  52.7030128  45.7552099
  60.5269056  51.2384373  44.7468877  59.7333611  52.7556404  44.2484992
  59.3126400  50.8890787  47.2965185  58.4253556  50.4611441  47.7639448
  60.1520783  50.1979479  47.2337291  59.7559775  51.6830294  47.8988923
  57.2204829  53.1116996  44.8252435  56.5294165  52.3266145  44.1593022
  57.5100757  54.3312038  44.3560108  58.1030883  54.9256862  44.9159846
  57.0293255  54.8859845  43.1225345  56.3293443  54.1962380  42.6500050
  56.2937433  56.1440481  43.3806445  55.3550577  55.8140658  43.8249137
  56.7680019  56.7193292  44.1754178  56.0226291  57.0268028  42.1951142
  56.8282955  57.2404349  41.4929796  55.3450001  56.4382918  41.5760351
  55.3240431  58.3335545  42.5720844  54.4162191  57.9629094  43.0478194
  55.9087787  58.9349697  43.2676769  54.9545066  59.1303421  41.3130712
  55.7999188  58.9910023  40.6399378  54.1314089  58.6342076  40.7968874
  54.6582298  60.5194797  41.7112757  53.9127270  60.5674959  42.3916286
  55.4075915  60.9412292  42.2404547  54.3606509  61.1969969  41.0245471
  58.1836439  54.9685835  42.1174641  59.0446085  55.8858982  42.2133107
  58.1384212  54.1666553  41.0579963  57.2991435  53.6397213  40.8616180
  59.3008397  53.9193793  40.2387265  60.1610890  54.5542833  40.4518578
  59.7544958  52.5260723  40.6500826  60.0772256  52.5502857  41.6912325
  58.8178089  51.9798583  40.5412986  60.8185406  52.0221926  39.6854402
  60.2812012  51.7100351  38.7891004  61.5116681  52.8353143  39.4706303
  61.6867446  50.6398112  40.3705749  60.3933214  49.3990789  40.1121160
  60.7780038  48.3965141  40.2974275  59.5873675  49.6136649  40.8138512
  59.9994606  49.5914040  39.1140060  58.8677892  53.9465712  38.7279545
  57.8845024  53.2733424  38.3696095  59.4809299  54.7729269  37.8998013
  60.3549408  55.1955066  38.1778789  59.2746691  54.8212630  36.4719350
  58.2071619  54.7195680  36.2773029  59.7730969  56.1737860  35.9050707
  60.8332308  56.3138346  36.1144211  59.6117747  56.1517525  34.8266535
  58.8285370  57.3765976  36.2962991  57.7721983  57.1905158  36.1036983
  59.0023135  57.8525620  37.7373879  60.0051572  58.2132033  37.9673952
  58.3816724  58.7306984  37.9134986  58.5822500  57.1043617  38.4104317
  59.1453476  58.5787634  35.4553292  58.9391136  58.2738347  34.4295636
  58.5017215  59.4170076  35.7241508  60.1894624  58.8874064  35.4087161
  59.9694359  53.5676550  35.8976980  60.5704533  52.7209727  36.5724989
  59.7380957  53.4242555  34.6540151  59.0798555  54.0887457  34.2708811
  60.0657300  52.2636522  33.8039270  60.6774420  51.5690620  34.3798409
  58.7609596  51.4978657  33.4794546  58.3844412  51.0345115  34.3922118
  57.9778297  52.1629863  33.1160223  59.0384794  50.3803875  32.4575039
  59.8763356  49.5527256  32.7837425  58.3626565  50.2778847  31.3301505
  58.3890147  49.3867013  30.8558106  57.5175297  50.8132553  31.1908127
  60.8046070  52.9360880  32.5390701  60.2936595  52.9907647  31.3834019
  62.0242485  53.4711038  32.7615086  62.4755859  53.3440444  33.6555715
  62.7014319  54.1856492  31.6839742  62.5831567  53.5739911  30.7900014
  62.0781116  55.6027045  31.5285713  61.0184759  55.5678069  31.2753119
  62.2012564  56.4756762  32.7676636  61.7157190  55.7887509  33.4604189
  63.2298141  56.6472047  33.0829241  61.7544601  57.4650113  32.6691439
  62.6535696  56.2781978  30.2893833  63.7187982  56.4665621  30.4191370
  62.4590525  55.6407444  29.4277643  62.0179133  57.1620142  30.2316645
  64.1671785  54.1201763  31.8867482  64.7316657  54.5630279  32.8951642
  64.8346682  53.5661792  30.8215014  64.2623085  53.1022637  30.1317943
  66.3116925  53.4134171  30.7761498  66.5756195  52.7346504  31.5871321
  66.7428437  52.7383587  29.5039191  66.6585796  53.4787474  28.7079705
  68.2268826  52.2274072  29.4030319  68.3705151  51.5676022  28.5474286
  68.9084459  53.0715300  29.2946701  68.4332466  51.6044999  30.2729315
  66.0039149  51.6052469  29.2119505  65.1275910  51.9066759  28.9597939
  67.0103903  54.7875887  30.8070022  68.0655397  54.9115881  31.3640702
  66.4076243  55.7356207  30.0904142  65.5174712  55.4656721  29.6973097
  67.0400902  57.0026481  29.6103386  67.8894359  57.2177538  30.2588094
  67.5678068  56.7503463  28.1986017  68.1851703  57.6001791  27.9090113
  68.2207409  55.8841258  28.0884013  66.8033188  56.5882580  27.4389942
  65.9860956  58.1072879  29.5721926  65.3744970  58.3854821  28.5322407
  65.6205574  58.7141876  30.7427752  66.3676284  58.4836315  31.9643912
  67.3981777  58.7623246  31.7470152  66.3025740  57.4283443  32.2313068
  65.7044859  59.4132677  32.9550297  66.1887113  60.3713003  33.1471863
  65.6702412  58.8586482  33.8932683  64.3153659  59.6457819  32.4521064
  63.8084538  60.5670482  32.7391925  63.6997748  58.8173210  32.8025992
  64.4666893  59.6069010  30.9299125  63.5092416  59.2476154  30.5534013
  64.5859182  61.0259906  30.3154873  65.6666861  61.6092444  30.1257119
  63.4333033  61.6202581  29.9636167  62.5379414  61.2021262  30.1732996
  63.4361813  63.0143887  29.4206934  64.1161517  63.1105786  28.5739462
  62.1502756  63.4282344  28.7844858  62.3720655  64.2855331  28.1487932
  61.4362403  62.4008236  27.9617144  61.9791587  61.9617130  27.1249717
  61.0825033  61.5946041  28.6048157  60.5623192  62.8595188  27.4980500
  61.3533996  64.0693136  29.7028453  60.7243701  64.5780066  29.1855772
  63.8831570  64.0460491  30.4301653  63.8392647  63.8378817  31.6508519
  64.2489988  65.2416581  30.0327942  64.6696907  65.5889055  28.5798797
  63.8190304  66.0449683  28.0739186  65.2058961  64.8319466  28.0073782
  65.6912624  66.6767049  28.7195138  65.7596041  67.3487508  27.8646865
  66.6626478  66.2177428  28.9069815  65.1505483  67.4347350  29.9904461
  64.3915750  68.1531201  29.6792092  66.0710715  67.8468124  30.4045285
  64.5642398  66.3586752  30.9124231  65.2986437  65.9680017  31.6169734
  63.4372225  66.8122701  31.7825091  63.7798120  67.3498283  32.8707943
  62.1763939  66.8109466  31.3235771  61.9943549  66.4689413  30.3908542
  60.9291156  67.0962599  32.0692944  61.0340270  67.9792142  32.6999371
  59.8191673  67.1918466  31.0303758  60.0899284  67.9635182  30.3091564
  59.5747573  66.2318643  30.5758916  58.4751738  67.5522070  31.6969092
  58.2173420  66.8954131  32.5282872  58.5345413  68.5950634  32.0096712
  57.2806956  67.4405643  30.6326993  57.3516677  66.7884011  29.5498383
  56.1475653  67.9406160  31.0856254  55.3131686  67.9213565  30.5163616
  56.0723875  68.4231654  31.9695028  60.6051338  66.0213281  33.1155351
  60.3185576  66.3790900  34.2108759  60.6743262  64.6833736  32.7618050
  60.9790358  64.4224534  31.8346541  60.6163967  63.6044959  33.7650389
  59.6434876  63.4525214  34.2318243  60.8922356  62.3103719  32.9922777
  61.7729066  62.3509782  32.3517821  61.0988499  61.4854840  33.6749640
  59.6807907  61.8404019  32.1975353  58.9569095  61.4040423  32.8860440
  59.2487927  62.7027478  31.6901773  60.0408536  60.8734826  31.0812200
  61.1596089  60.3626086  31.0734616  59.1802178  60.6358118  30.1560321
  59.5090089  59.9778707  29.4630659  58.2892526  61.1110336  30.1403468
  61.5695508  63.8134782  34.9667867  61.1694908  63.7081128  36.1500395
  62.7936725  64.1808156  34.6428371  62.9161743  64.3443796  33.6535853
  63.8399746  64.2615324  35.6559253  63.7580165  63.4061042  36.3261517
  65.1999716  64.1489422  34.9120109  65.2550106  63.1652499  34.4446372
  65.3637013  64.9680566  34.2124124  66.3802769  64.1777284  35.8646147
  66.4871321  65.1588315  36.3262809  66.2925069  63.1535105  37.0878187
  65.4503702  63.3334713  37.7551896  66.2848899  62.1502346  36.6604038
  67.1398209  63.2723247  37.7633416  67.6205000  63.8563742  35.0053841
  68.5382571  63.9336592  35.5887219  67.6530770  62.8498619  34.5892812
  67.6415233  64.6215641  34.2296209  63.5685877  65.5141608  36.4250405
  63.5927102  65.4055995  37.6746862  63.2327591  66.6774511  35.8554978
  63.2832903  66.8140432  34.8557702  62.8178167  67.8256655  36.5852871
  63.6019996  68.1764385  37.2560563  62.4084454  68.8957050  35.4861476
  63.3434248  69.2336720  35.0400053  61.7964130  68.3896712  34.7402434
  61.5889272  70.1128680  35.8988146  61.5505444  70.7728309  35.0328119
  60.5617976  69.8030935  36.0895778  62.1622165  70.7369244  37.1016845
  63.3334428  70.5898179  37.4863672  61.3619822  71.5763411  37.7638488
  61.6983147  71.9064890  38.6567860  60.4973811  71.8286891  37.3070398
  61.6419355  67.5613865  37.4965363  61.6600044  68.0669455  38.6089757
  60.5841858  66.8743219  37.0722607  60.4167936  66.7158492  36.0889092
  59.4144918  66.5046945  37.9012394  58.9382240  67.4274250  38.2337653
  58.4452078  65.7204516  36.9789716  58.8541671  64.8641279  36.4434169
  57.6751823  65.2825127  37.6148476  58.1491200  66.4255444  36.2018364
  59.9445924  65.7216111  39.0456517  59.5805837  66.0700081  40.2062344
  60.7889722  64.6305624  38.9041010  60.9527995  64.4190959  37.9305115
  61.3573798  63.6994197  39.9416443  60.4964441  63.3712688  40.5233638
  62.0472851  62.5660159  39.2797527  61.3913169  62.0227128  38.5996486
  62.8976517  62.9216047  38.6992372  62.6074234  61.5820952  40.3195556
  61.7294637  60.6993212  40.9368325  60.6843071  60.8864912  40.7366799
  62.1886491  59.7776878  41.8578507  61.5504513  59.1354403  42.4473215
  63.5831741  59.6281476  42.0513954  63.9774304  58.8049438  42.6294460
  64.5051011  60.6302860  41.5201420  65.5804324  60.5412712  41.5755671
  63.9858318  61.5157134  40.5620690  64.5377080  62.2258473  39.9651131
  62.1828612  64.5365168  40.9477228  61.9541976  64.3836975  42.1463838
  63.0022085  65.5330168  40.4966355  63.1642002  65.5918020  39.5009855
  63.8591426  66.3488417  41.4272142  64.4197719  65.7296070  42.1264574
  65.0907171  66.9999085  40.7551166  64.6371223  67.6190640  39.9814919
  65.5525583  67.7352887  41.4144827  66.0926998  65.9846145  40.1884864
  66.3460142  65.3138363  41.0091413  65.5415206  65.3634831  39.4817925
  67.2316533  66.7806055  39.5459911  66.9959789  67.2248399  38.5794538
  67.5854897  67.5377320  40.2458921  68.3057774  65.7119700  39.4361928
  68.4487616  65.1632847  40.3672405  67.9613464  64.9181840  38.7738900
  69.6056165  66.1549576  38.8519416  69.9773108  66.8929915  39.4319194
  70.3154680  65.4398785  38.7721004  69.5352141  66.4364110  37.8847149
  62.9662236  67.3254078  42.2482578  63.2195701  67.6283119  43.4305651
  61.9225732  67.8031419  41.5833685  61.7944941  67.4620274  40.6405691
  60.9158100  68.7550231  42.1171054  61.5495728  69.4419585  42.6803776
  60.1822659  69.5094083  40.9886352  60.8446881  69.8887558  40.2102020
  59.5754872  68.9485550  40.2773320  59.3094553  70.5507600  41.6435239
  59.7784980  71.5932198  42.0424957  58.0115977  70.2952326  41.8078754
  57.4870061  70.8429892  42.4740919  57.5187087  69.4821797  41.4666255
  60.0051998  68.0803445  43.1489716  59.7924691  68.6323346  44.1963519
  59.6384716  66.8029283  42.9228358  59.8836904  66.4814369  41.9966695
  59.0843850  65.8516480  43.8762585  58.2090317  66.3039101  44.3430835
  58.3872193  64.6578774  43.1032147  57.6417532  65.0569791  42.4143038
  59.1415217  64.3090163  42.3984298  57.8706864  63.4817152  43.9131388
  58.6615175  62.8056588  44.2387412  57.4201352  63.8882630  44.8185688
  56.7980330  62.6379471  43.1584077  57.0080539  62.1885187  42.0298625
  55.7481999  62.3127467  43.7970666  59.9010529  65.4727753  45.0406429
  59.4894467  65.5557596  46.1890378  61.0904038  65.0410586  44.7357390
  61.2110537  64.8420833  43.7529474  62.1098935  64.7137093  45.7547494
  61.7446019  63.8727805  46.3432268  63.5167430  64.2509473  45.2352399
  63.8266280  64.9002729  44.4163795  64.7238502  64.2065765  46.1982702
  64.6034427  63.4044084  46.9260293  65.6170136  63.9501575  45.6298711
  64.9260523  65.1956175  46.6092218  63.5571553  62.8878963  44.6750544
  62.7344048  62.8940550  43.9610035  64.4507919  62.6053208  44.1196790
  63.3282485  62.2192531  45.5054633  62.3550197  65.8639605  46.6809444
  62.4951914  65.7866507  47.8907792  62.4803891  67.0993030  46.1076694
  62.4343158  67.1374514  45.0988641  62.5482580  68.3693908  46.8789449
  63.4082180  68.3511221  47.5494320  62.7726853  69.1293090  46.1309666
  61.3260453  68.7193475  47.6680434  61.5572362  69.2775391  48.7102132
  60.1578972  68.4776267  47.2187249  60.0318440  68.2533236  46.2413280
  58.9689199  68.4218182  48.0814505  58.9818903  69.4214969  48.5165727
  57.6129099  68.3518728  47.3026506  57.5889111  67.5681155  46.5461107
  56.5105321  67.9245544  48.2324571  55.5538395  68.0064385  47.7149010
  56.5159572  66.8923130  48.5804130  56.5024110  68.4727518  49.1748729
  57.2760005  69.7219066  46.5669635  57.9912361  69.9865868  45.7888925
  56.3665552  69.7434982  45.9669119  57.1383359  70.4638641  47.3536150
  59.1361561  67.5065464  49.2655699  59.0760413  68.0447076  50.3988755
  59.3617287  66.1820936  49.0865338  59.4041078  65.8283830  48.1414206
  59.4663002  65.2224380  50.1606021  58.5460812  65.3433709  50.7319165
  59.3702041  63.7893848  49.4002113  60.0491213  63.8774716  48.5519707
  59.7824523  63.0572996  50.0945748  58.0080137  63.4756988  48.8983325
  57.5126632  64.4052210  48.6195633  58.0978964  62.5156692  47.6967926
  57.0739603  62.2087686  47.4813470  58.5257562  62.9201814  46.7791680
  58.6982349  61.7007955  48.1017254  57.2017496  62.7448890  49.9542648
  57.8557931  62.0014901  50.4102672  56.8536588  63.4873958  50.6727287
  56.3482268  62.2887182  49.4529544  60.6029760  65.4663697  51.2026647
  60.4638384  65.2034114  52.4081433  61.6825403  66.0819451  50.7499828
  61.6581532  66.2467886  49.7535884  62.7241014  66.6404185  51.5988054
  63.0213373  65.8964462  52.3376646  63.9366671  67.1340929  50.7669352
  63.6443645  67.6465628  49.8504294  64.4349772  67.8024059  51.4691850
  64.9307131  66.0406838  50.2828886  65.3381302  65.6155156  51.1996270
  64.3325843  65.2782286  49.7841762  66.0975577  66.6475454  49.4885047
  66.6001119  65.9004444  48.8735247  65.7697901  67.4842690  48.8712309
  67.1652169  67.1893002  50.4632018  66.7731961  67.4588943  51.3539726
  68.4453140  67.5377704  50.1760326  68.8849915  67.3294773  48.9685979
  68.3166345  66.9045179  48.2501783  69.8808630  67.4453770  48.8460731
  69.2266578  68.1093435  51.0857271  68.8181502  68.1360015  52.0092426
  70.1452188  68.4094507  50.7909620  62.1314376  67.8175301  52.4297139
  62.3358901  67.8080362  53.6434190  61.5235549  68.7726769  51.7685263
  61.2331926  68.7039434  50.8034836  61.0136332  69.9718197  52.5728759
  61.7612612  70.4634863  53.1953158  60.5806684  71.0677853  51.6309343
  60.2322242  70.6102383  50.7052435  59.8043908  71.6341364  52.1440810
  61.6705597  72.1423680  51.1914676  62.1123723  72.5996319  52.0769558
  62.3888559  71.5468881  50.6288368  61.0317912  73.2278218  50.1965793
  60.4584176  72.7686454  49.3908096  60.4584276  73.9777571  50.7416593
  62.1527432  74.0125117  49.4459672  62.9262883  74.1836029  50.1945330
  62.5242932  73.3255180  48.6849598  61.6777130  75.2725473  48.8467391
  62.1722339  76.1098349  49.1209664  61.8084434  75.1726277  47.8503703
  60.7006323  75.4180510  49.0549914  59.8564404  69.5704816  53.6354015
  59.7041970  70.1950865  54.7242232  59.0038853  68.5471449  53.3368368
  59.0744609  68.1771856  52.3990680  57.8704744  68.0435003  54.1281469
  57.4058221  68.9351805  54.5493067  56.8766627  67.2723291  53.2674220
  56.1364021  66.8582505  53.9530547  56.1320896  68.1112381  52.2787019
  56.8913148  68.7346857  51.8063247  55.7559387  67.5615741  51.4150254
  55.3454937  68.7173901  52.7278062  57.5558977  66.1775031  52.6501498
  58.1778300  65.7210020  53.2213590  58.4123573  67.1938313  55.2713143
  59.2022433  66.2974691  55.0419306  57.8098568  67.3834031  56.4386962
  57.3734254  68.2935675  56.4845496  57.8547941  66.5571463  57.6452505
  57.9411624  65.5246330  57.3055051  59.0928378  66.9344618  58.5001066
  59.3265356  67.9876509  58.3486206  58.8849099  66.8619675  59.5677144
  60.3211282  66.0764776  58.1108896  60.0227641  65.0507198  58.3278796
  60.5929822  66.2150218  57.0643496  61.4181896  66.5209292  59.0818995
  61.6399940  67.5832226  58.9831456  61.1673044  66.2704254  60.1131301
  62.6702698  65.7655035  58.9845589  63.4517611  66.1936665  58.5101481
  62.9026784  64.6650047  59.6372072  62.1959456  64.1214436  60.5571306
  61.2736184  64.4324719  60.8277020  62.6466604  63.3807216  61.0750381
  64.0251864  64.1349905  59.4059011  64.7862311  64.5346826  58.8767422
  64.2599076  63.2685191  59.8685287  56.5627832  66.7421097  58.5417985
  56.4813857  67.6544501  59.3332095  55.5169786  65.9276448  58.3590835
  55.6833323  65.0475089  57.8934751  54.1519025  66.3323984  58.8679154
  54.3542058  67.0038144  59.7024805  53.4192185  67.1887873  57.8335541
  54.0625172  68.0665657  57.7751335  53.3396072  66.6864786  56.8700844
  52.0905946  67.7480575  58.3005663  50.8322050  67.3481721  57.8088393
  50.0046630  67.9486203  58.7369309  48.9421658  67.8316706  58.8907112
  50.6811627  68.6669107  59.6269085  50.2807551  69.0807374  60.4561438
  51.9950103  68.6557287  59.3014097  52.7974077  68.9927179  59.9403790
  53.3277194  65.0913181  59.0953286  53.3589678  64.1117284  58.2990595
  52.4296551  65.1511356  60.0669867  52.4521258  66.0082878  60.6018131
  51.4439751  64.0500632  60.3704560  52.0662220  63.2006197  60.6508780
  50.5265200  64.3521762  61.5671471  49.7635843  63.5741687  61.6031672
  51.3719018  64.4052056  62.8768385  50.7674106  64.5194357  63.7761148
  51.9952764  63.5215363  63.0160750  52.0492735  65.2565609  62.8118716
  49.6644051  65.6081129  61.5262824  48.7633355  65.3750734  60.9586943
  49.4379980  65.9217120  62.5449464  50.1430651  66.4993400  61.1206237
  50.5858731  63.6476402  59.1207418  50.3669139  62.4003894  58.9769247
  50.1706039  64.4904285  58.2209088  50.4187472  65.4681596  58.2530459
  49.2481152  64.0936267  57.0403377  48.8459795  63.1078314  57.2737121
  47.9643142  65.0372898  57.0520369  48.2855193  66.0684594  56.9047462
  47.3471079  64.6957926  56.2212215  47.1919492  64.9363436  58.3165084
  47.0669488  65.9390812  58.9682586  46.7371425  63.8580949  58.7799765
  46.3860080  63.9228590  59.7241137  46.7497375  63.0010837  58.2457714
  49.9872698  64.0402946  55.7103200  49.3484955  63.9854744  54.6878274
  51.3457545  64.0002706  55.6839277  51.7697515  63.8454817  56.5870229
  52.1213519  63.9593644  54.4703725  51.5508092  63.7547005  53.5646160
  52.9726396  65.1959642  54.3720300  53.7118597  65.0751745  55.1636464
  53.8300196  65.1370669  53.1468587  54.4543277  66.0313643  53.1441110
  54.5990627  64.3646054  53.1692214  53.2440993  65.2249565  52.2314611
  52.2230831  66.4645518  54.4362536  51.7017171  66.6041193  55.3831661
  52.9130717  67.2839451  54.2378391  51.0795224  66.4912410  53.3335122
  51.5325653  66.5933418  52.3475566  50.3424924  65.6883193  53.3391320
  50.6264846  67.4515115  53.5825689  52.8659359  62.6805084  54.6247326
  53.5349480  62.4477412  55.6475651  52.6294283  61.7301102  53.6915014
  52.1177961  61.9200611  52.8415543  53.1649621  60.3468642  53.6014956
  52.9308873  59.7397042  54.4762566  52.6631340  59.6640625  52.2625365
  51.5983532  59.8163695  52.0866009  53.1207140  60.2722006  51.4819748
  53.0447862  58.2215949  52.0184877  54.0315398  58.0288818  52.4418988
  52.0429350  57.3550375  52.8032128  51.8918706  57.6480124  53.8411412
  51.0964572  57.5561561  52.3017748  52.3025961  56.3048409  52.6708942
  53.0743567  57.8388966  50.5667478  52.1588548  58.1937513  50.0945281
  53.9491999  58.2901015  50.0976749  53.2481557  56.7622222  50.5656566
  54.7350797  60.4154520  53.6695276  55.4080072  61.1419969  52.9115552
  55.2179349  59.9060482  54.8093208  54.4825698  59.4967251  55.3672686
  56.5690993  60.1699916  55.2848729  56.6676726  61.2389969  55.4729708
  56.7078948  59.6008675  56.6565312  56.0198052  60.0626139  57.3650282
  56.3594727  58.5695173  56.6097260  58.1049489  59.5782133  57.3336321
  58.7825987  58.8444487  56.8977853  58.7892664  60.8977428  57.3804985
  59.5171695  60.9844949  56.5732531  58.1063105  61.7412393  57.2749252
  59.4167012  60.8842478  58.2714220  58.0566714  59.0233421  58.7806398
  57.6040312  58.0324589  58.7431093  59.0911274  58.8887514  59.0947656
  57.6275028  59.8164778  59.3927312  57.6429895  59.7913637  54.2383401
  57.5276363  58.7153821  53.6533092  58.6676102  60.6211495  53.9698595
  58.7818327  61.4455224  54.5421710  59.8486838  60.3564557  53.1381959
  59.4874974  59.8927585  52.2200422  60.5094450  61.7394250  52.8166190
  59.7832792  62.4383486  52.3996848  60.9095728  62.1602862  53.7388525
  61.5756956  61.7065118  51.7912999  61.4090182  61.1677912  50.5544665
  60.4517106  60.7845151  50.2350381  62.4198459  61.0656963  49.5793388
  62.2713530  60.7299511  48.5642176  63.5951724  61.7061185  49.8711145
  64.3450287  61.8617832  49.1097178  63.8333109  62.3113611  51.0963661
  64.7007815  62.9518139  51.1517633  62.8131604  62.2725629  52.1032935
  62.8398046  62.9394410  52.9510982  60.9002366  59.4333821  53.7912424
  61.2961810  59.6341762  54.9576316  61.3485662  58.4488823  53.0488909
  61.0651514  58.3728806  52.0828962  62.4524850  57.5560633  53.4854531
  62.6912195  57.5780083  54.5485948  62.0285213  56.1591666  53.1109646
  61.9047362  56.1408556  52.0280635  62.7868945  55.4323037  53.4016646
  60.6501961  55.7248820  53.6484378  59.9916741  56.3865118  53.0855020
  60.4402860  54.7491686  53.2107848  60.2311031  55.9159188  55.4057084
  61.4502029  54.9063536  56.0878102  61.3086499  54.7541201  57.1582511
  61.3687364  53.9191071  55.6335377  62.4167548  55.3807769  55.9195668
  63.8291928  57.8260420  52.7819831  64.8665460  57.6030197  53.3743381
  63.7065471  58.0555133  51.4627102  62.7751464  58.0805748  51.0709059
  64.8038550  58.3700865  50.5951273  65.0631757  59.4271273  50.6463965
  65.6962298  57.8141573  50.8843383  64.4268126  58.1244386  49.1318057
  63.2025145  58.0441296  48.8292605  65.4245272  58.1625415  48.2469199
  66.3526224  58.3181834  48.6120896  65.1854670  57.9155287  46.8282864
  64.3074554  57.2970334  46.6417680  65.0222046  59.2746883  46.1014600
  64.6207814  59.1268900  45.0986783  64.2954203  59.8771021  46.6458460
  66.2696201  60.0506007  45.7913964  66.8087905  60.8672826  46.7452235
  66.4073809  60.9403669  47.7452910  67.7674924  61.8237964  46.4021056
  68.1317295  62.5381787  47.1250449  68.3780007  61.7715639  45.1668872
  69.4515284  62.4777558  44.8428218  70.0729685  61.8051391  44.5540921
  67.8417268  60.8856007  44.1570450  68.2015891  60.9236679  43.1396237
  66.7646572  60.1135587  44.4706120  66.3109917  59.5217600  43.6906742
  66.3542947  57.1565600  46.0642934  67.4485122  56.9634170  46.5903560
  66.0645725  56.6367039  44.9062896  65.1263905  56.7260522  44.5414150
  67.1476633  56.0096597  44.1049989  68.0951396  56.2744858  44.5731887
  67.0702558  54.4258524  44.3536126  67.1241927  54.1816222  45.4143931
  66.2613631  53.9477964  43.8009680  68.3125132  54.0151379  43.7313874
  68.8092511  53.8839777  44.5426978  67.0644002  56.4352187  42.6254274
  66.0734880  57.1289053  42.1798762  68.0834017  56.1219003  41.8404361
  68.8122085  55.5757176  42.2764821  68.0293638  56.3486439  40.4239700
  66.9690730  56.3952852  40.1747091  68.8260812  57.4906911  39.9664870
  68.6802215  57.6008913  38.8915592  68.4170306  58.8303139  40.5006156
  69.0329860  59.5711811  39.9916956  67.3807203  59.0239664  40.2262423
  68.5354987  58.8388285  41.5848434  70.1903853  57.4071546  40.2443952
  70.2319367  56.7651532  40.9564715  68.5371444  55.1291034  39.6420781
  68.5308399  55.1850804  38.4207768  68.8088938  53.9446219  40.2566185
  68.6277612  53.9734504  41.2504042  69.4230730  52.7933012  39.5833010
  69.0959614  52.8043810  38.5432427  71.0048354  52.7987093  39.6136272
  71.3439622  52.8190940  40.6492563  71.3929631  51.9025008  39.1297180
  71.4901384  54.0492219  38.8642482  71.1314899  54.0809743  37.8353731
  71.2512192  55.0011771  39.3402125  73.0072113  53.9256699  38.7232310
  73.4905471  53.8496620  39.6973929  73.3083961  53.1317585  38.0402131
  73.6325666  55.1550754  38.2474024  72.8787205  55.6607829  37.6435208
  73.9238188  55.8451815  39.0390284  74.8843836  54.8671655  37.4811022
  75.5425855  55.6304631  37.5378208  75.3608694  54.1170637  37.9614215
  74.7715917  54.6453704  36.5015034  68.8849090  51.5040884  40.3054033
  69.0535417  51.3969814  41.5155563  68.0593285  50.6675668  39.6009366
  67.3578404  49.5538153  40.2495366  66.4955100  49.9285336  40.8004827
  67.9874141  48.8824530  40.8341352  66.7370893  48.7353663  39.1298106
  65.7063905  49.0697240  39.0154296  66.8677580  47.6740687  39.3415323
  67.6497467  49.0849947  37.9852939  67.1875434  48.8388336  37.0294222
  68.5278633  48.4390671  37.9794050  68.0305744  50.5928228  38.1150734
  69.0375606  50.7486309  37.7280003  67.0168876  51.4756107  37.3894167
  66.9169191  51.4371532  36.1740471  66.3429185  52.3090321  38.1952756
  66.5244111  52.2561440  39.1872178  65.2061924  53.1881211  37.7512192
  65.4409889  53.5494942  36.7498236  63.8870645  52.4183790  37.9257089
  63.9019212  52.0749519  38.9596809  63.0291229  53.0875902  37.8579986
  63.5413310  51.2701025  36.9907804  64.2945258  50.4843040  37.0591860
  62.5754094  50.8233471  37.2233983  63.5422377  51.5296924  35.5207306
  63.7495789  52.6630987  35.0938749  63.3253222  50.5657317  34.6291913
  63.4662248  50.6783224  33.6350264  63.0553342  49.6469082  34.9490396
  65.1489773  54.4520782  38.6995439  65.5447014  54.4187071  39.8590360
  64.5191324  55.5262903  38.2642304  64.2577465  55.5634269  37.2895493
  64.0763460  56.7105825  39.0395401  64.8525133  57.1487942  39.6680692
  63.3526719  57.7290259  38.1005055  62.4743591  57.2225279  37.6995774
  62.9986353  58.5674435  38.6998401  64.2302414  58.3417447  36.9339609
  64.4475716  57.4622121  36.3273523  63.3656311  59.3788902  36.1629179
  63.9659973  59.9997101  35.4987703  62.5364457  58.9024734  35.6397949
  62.9599333  60.1039658  36.8692746  65.4214542  59.0968133  37.5714313
  65.1059308  59.8142329  38.3293919  65.9894648  58.2990238  38.0490900
  66.0465903  59.6427821  36.8653939  62.9917129  56.1895186  40.0530062
  61.9573252  55.7291960  39.5544591  63.2900732  56.1714454  41.3347532
  64.2438499  56.3703412  41.5991233  62.3499600  55.5720184  42.3005303
  61.3107145  55.6400020  41.9788844  62.7284101  54.0973117  42.5985898
  63.6935225  53.9402701  43.0780740  61.8594957  53.7601941  43.1642800
  62.6591633  53.5656524  41.6491245  62.2869551  56.3380496  43.7013971
  63.2420034  56.4339510  44.4178994  61.1628428  57.0697990  43.8503481
  60.4322314  56.8830476  43.1785707  60.7290949  57.5496820  45.1830176
  61.5766161  58.1615884  45.4903992  59.4170847  58.4404296  45.1039798
  58.7926277  57.8754568  44.4127641  58.6324838  58.5578819  46.4027208
  58.3161373  57.6092011  46.8349009  59.3522261  59.0838267  47.0315945
  57.7098722  59.1201281  46.2605909  59.5828596  59.8018887  44.4299375
  59.8146807  59.6619688  43.3737470  58.6190462  60.3113125  44.4313805
  60.6718016  60.8088415  44.9767878  60.2720843  61.1875764  45.9182643
  61.5918961  60.2320853  45.0695202  60.7120073  61.6487196  44.2844496
  60.4753802  56.4207849  46.2013251  59.8305127  55.4179083  45.8294239
  60.8691927  56.6702806  47.4866412  61.4164243  57.5041592  47.6484498
  60.5436636  55.8001643  48.6333123  59.9034967  55.0529033  48.1634949
  61.7717612  55.0908123  49.2255969  62.4250373  55.8728980  49.6123879
  61.2773647  53.9910854  50.1723334  60.5073702  53.4034451  49.6719213
  62.1099055  53.3554285  50.4749754  60.8827091  54.3727102  51.1139785
  62.5896929  54.3434810  48.1617996  63.4461128  53.8875812  48.6581274
  62.0832752  53.4609137  47.7693471  62.8670121  55.0003090  47.3379210
  59.9739203  56.5715765  49.8286719  60.6150024  57.5029122  50.3483453
  58.8155762  56.1965771  50.1953484  58.3989241  55.4882454  49.6077829
  58.0367586  56.8213678  51.2007342  58.6549204  57.5545628  51.7181953
  56.8573582  57.5832358  50.5891452  56.2147204  57.9724058  51.3788137
  57.1523528  58.8076806  49.6594188  56.3102211  59.4980362  49.6265361
  58.0291789  59.4014368  49.9200693  57.2780376  58.4767448  48.6284077
  56.1327386  56.6363017  49.8079128  55.8044989  55.9704310  50.4174568
  57.5946838  55.7545301  52.2193785  57.8605335  54.5602724  51.9684257
  57.0748561  56.1298381  53.3913734  56.9587470  57.1122960  53.5958120
  56.3753186  55.1641194  54.3147870  57.0711656  54.3960093  54.6510738
  55.7396336  55.9224310  55.5554135  55.4922205  55.2292817  56.3590836
  56.4508793  56.6851310  55.8745973  54.4355396  56.6906683  55.1974087
  54.7184403  57.5137886  54.5406848  53.7294540  56.0464861  54.6727962
  53.6242290  57.2584177  56.3885618  53.3558268  58.4249099  56.5870688
  53.1475025  56.2864485  57.1653255  52.4083331  56.4251204  57.8394766
  53.4759594  55.3392519  57.0396530  55.3621416  54.3861843  53.5345496
  54.6550369  54.9628117  52.7198136  55.0964722  53.1148738  53.8354440
  55.7381766  52.6190765  54.4391936  53.8032578  52.3687331  53.5093896
  53.6601470  52.5497159  52.4435315  54.0974720  50.8675259  53.8131083
  54.9713185  50.5494315  53.2447808  54.4188236  50.8235698  54.8541491
  52.9932178  49.8484171  53.5666556  52.3150378  49.2727883  54.5112044
  52.5780746  49.4096703  55.5496099  51.2856274  48.5269432  53.9767529
  50.5840547  48.0923576  54.5582141  51.3375211  48.4592399  52.6181193
  50.6412341  47.7553157  51.5717445  49.7518475  47.1523028  51.6808677
  51.0506553  47.9253404  50.2446635  50.5136745  47.3221577  49.5276619
  52.1484656  48.7813150  49.8922876  52.4470443  48.8437109  48.8563887
  52.8529027  49.4532142  50.9285640  53.7287500  50.0695299  50.7902908
  52.5161695  49.2610032  52.3220847  52.6106883  52.8977185  54.2603825
  52.6592099  52.9879649  55.4801256  51.5838908  53.4518043  53.6313596
  51.4739382  53.2003812  52.6591853  50.2990370  53.6632340  54.2982397
  50.3158134  54.0293186  55.3253315  49.4312939  54.6504182  53.5286305
  49.9343053  55.6157120  53.4652555  49.2983327  54.3989269  52.4773007
  47.7880034  54.5775060  54.2548057  48.1471748  54.5018980  55.5393416
  49.5601026  52.2793919  54.3837208  49.3615456  51.5650565  53.3716032
  49.1085466  51.8706463  55.5693558  49.2351570  52.3949619  56.4231315
  48.3527077  50.7058135  55.7239035  48.7427373  49.8354842  55.1959982
  48.3573817  50.1928931  57.1456671  47.9693418  51.0188180  57.7403429
  47.6531898  49.3635290  57.1999537  49.6753725  49.6637186  57.7515628
  50.4051323  50.4214716  57.4631499  49.6216192  49.7798554  58.8339868
  50.0693667  48.2192717  57.1767621  49.4399575  47.7758172  56.1645032
  51.0416460  47.5912337  57.6080280  46.8901349  50.9106239  55.2556959
  45.9836705  51.3479082  56.0058471  46.6179064  50.8648504  53.9042014
  47.3760760  50.6866829  53.2595306  45.3366506  51.1589712  53.3063257
  44.5425709  50.4383286  53.5016860  44.9403896  52.1343496  53.5907256
  45.3443229  51.2377466  51.7787143  46.1729440  50.6181843  51.1577960
  44.4526858  51.9542729  51.1700318  43.8867086  52.4799190  51.8206807
  44.2612996  52.3585527  49.7603002  45.2194800  52.2610332  49.2494486
  43.1847641  51.5103331  49.0679479  43.1017448  51.6325762  47.9878190
  43.3662321  50.4522660  49.2591271  41.8844645  51.7971762  49.5642049
  41.5866943  52.6501054  49.2396042  43.9663132  53.7986327  49.7506221
  43.7380162  54.5167990  50.7182205  43.9663382  54.3608022  48.5417750
  44.2946358  53.7547993  47.8037179  43.3651356  55.6381258  48.1660544
  43.8772201  56.4083578  48.7421743  43.6668182  55.9849581  46.7343673
  43.6352753  57.0737410  46.6759057  44.6296024  55.5826540  46.4222874
  42.7995077  55.3436629  45.8283584  43.2734089  54.9034550  45.1192261
  41.8964074  55.6861382  48.5716875  41.0783636  54.7549472  48.4097103
  41.4566465  56.8670623  48.9935237  42.1247020  57.5967386  49.2002707
  40.0745639  57.2710589  49.1361190  39.6633807  56.6592779  49.9385456
  40.1585449  58.6828311  49.7352729  40.4495327  58.5089397  50.7715319
  40.8954953  59.2573766  49.1743214  38.8300107  59.5664224  49.6344006
  38.6401218  59.7512847  48.5778031  37.6812789  58.8794265  50.3807489
  37.3394887  57.9248756  49.9808688  37.9194354  58.7453874  51.4362341
  36.8378419  59.5643795  50.4678249  39.1321275  60.9467326  50.3629218
  39.7189320  61.5562736  49.6764612  38.1733514  61.3911221  50.6339927
  39.6591477  60.7024154  51.2854053  39.2393493  57.1602471  47.8354733
  38.0715311  56.7114283  47.9665507  39.7542597  57.3543991  46.6171300
  40.5914527  57.9184009  46.6024736  39.1249641  56.9051073  45.3277810
  38.1662096  57.4168780  45.2379283  39.9800397  57.3213132  44.1539086
  40.2874840  58.3615053  44.2532842  40.8312854  56.6666901  44.3386930
  39.3985012  57.1847809  42.7958446  39.3129806  56.0006468  42.0420444
  39.6504842  55.0677138  42.4680436  38.7782343  55.9591128  40.7529066
  38.7962276  55.0082930  40.2411029  38.3669576  57.1807514  40.2146058
  37.8778049  57.2560375  38.9766076  37.2812598  56.5092792  38.8790736
  38.4037960  58.3750560  40.9388492  38.0175113  59.2428098  40.4254882
  38.8880732  58.3754155  42.1950396  38.8919937  59.2927515  42.7652609
  38.7722199  55.3768475  45.2448616  37.7162022  54.9821046  44.7579524
  39.6600540  54.4828171  45.7124878  40.5248554  54.9407747  45.9631319
  39.3731940  53.0973437  45.8542823  39.0829222  52.7440481  44.8649626
  40.5575945  52.3170925  46.2393452  41.4135159  52.6709318  45.6644050
  40.7633706  52.4441789  47.3023119  40.4024400  50.8306810  45.9721542
  40.1078631  49.7883431  46.8402293  40.2257139  48.6098743  46.1827878
  40.0044572  47.6445750  46.6133034  40.6306971  48.9202723  44.9375397
  40.5581279  48.2343584  44.1992912  40.7505129  50.3077803  44.7639005
  41.0821028  50.7782494  43.8502496  38.2042141  52.7469197  46.7834594
  37.2817471  52.0077649  46.4647215  38.2033731  53.4677912  47.8987211
  38.9733659  54.1012308  48.0589032  37.1333690  53.3880348  48.9039033
  37.0433690  52.3383218  49.1836112  37.5204983  54.2189399  50.1690071
  38.0921809  55.1092688  49.9101953  36.5636604  54.6169308  50.5069915
  38.1140295  53.4798319  51.3481429  37.4569639  52.6134020  52.1890102
  38.4263758  52.0063652  52.8980524  38.2578025  51.3329280  53.7253174
  39.6835900  52.3949228  52.4624132  40.5475574  52.0911927  52.8877662
  39.4734202  53.3660670  51.5384149  40.2204606  53.9482652  51.0178816
  35.8048301  53.8474395  48.2862644  34.8016243  53.1270978  48.3964593
  35.7172532  55.0214579  47.6481649  36.5672552  55.5310234  47.4524598
  34.4655898  55.6360085  47.1938198  33.7548710  55.6294416  48.0205856
  34.7502748  57.0905339  46.8114778  35.7546348  57.0762757  46.3874652
  34.0497476  57.5154286  46.0928818  34.8155037  58.1862090  47.9885701
  35.5621920  57.7511542  48.6520669  35.4456640  59.4171192  47.4375774
  34.7190307  59.9068578  46.7886574  35.8043736  60.1403125  48.1695063
  36.3686098  59.2266622  46.8906960  33.5718299  58.4303785  48.8331165
  33.1356659  57.4517430  49.0282049  33.6814004  58.8571257  49.8305553
  32.9878335  59.1166187  48.2206907  33.9150726  54.9753114  45.8938063
  32.7663944  54.6517229  45.8481692  34.7679852  54.8720520  44.8455250
  35.7577496  55.0495357  44.9362046  34.2127678  54.4508749  43.5134328
  33.1592754  54.7258657  43.4580181  34.9249740  55.0772071  42.3092894
  35.9588465  54.7407691  42.3818302  34.4501733  54.7386079  41.3884393
  34.9707078  56.5738666  42.3583266  33.8996727  57.4607139  42.1579677
  34.3303491  58.6898653  42.5312434  33.8267606  59.5943855  42.2225237
  35.5804321  58.6050508  43.0158226  36.1394265  59.4424246  43.0907783
  35.9840148  57.2874044  42.8979669  36.9569602  56.8980704  43.1618709
  34.3950631  52.9060610  43.2387722  33.6596439  52.3751296  42.3949047
  35.3952521  52.2366342  43.8441214  35.8967881  52.6945387  44.5922826
  35.7455407  50.8478601  43.5263818  35.1952216  50.5974610  42.6194859
  37.2337792  50.5789059  43.2913392  37.6593719  50.6317897  44.2938855
  37.6359970  49.1506157  42.8748431  37.2067175  48.3123962  43.4220990
  37.2771390  49.0822506  41.8483008  38.7108432  49.0819766  43.0463785
  37.9951222  51.6208580  42.4323272  38.0184592  52.5826651  42.9444252
  38.9993106  51.2067750  42.3484707  37.4780247  51.8963654  40.9974798
  37.3454197  50.9310956  40.5095790  36.5273621  52.3930715  41.1898923
  38.0668733  52.5913499  40.3983932  35.0954738  49.8372598  44.4990631
  34.2640543  49.0699664  44.0585403  35.4686675  49.7908138  45.8177011
  36.2101097  50.4478001  46.0162293  34.9270447  48.9303990  46.8679336
  34.6213938  48.0287803  46.3381683  35.9876068  48.5004046  47.9388289
  35.3900334  47.8420280  48.5697547  37.1568578  47.7404773  47.2734812
  36.9070194  46.7489306  46.8943178  37.5878871  48.4079644  46.5277729
  37.9405160  47.6082131  48.0190153  36.3010133  49.7689485  48.7910670
  37.0037709  50.4129030  48.2626463  35.4936205  50.4949322  48.8899030
  36.7121262  49.4920165  50.1818322  37.1363945  50.4227847  50.5595144
  35.8976693  49.0772675  50.7754460  37.4119773  48.6577666  50.2266597
  33.5428996  49.3989788  47.4068252  32.8014797  48.6728671  48.0902214
  33.2061256  50.6754437  47.1144460  33.9441666  51.2275918  46.7030410
  31.9083482  51.4237424  47.3476320  32.2430171  52.4230764  47.0689594
  30.8125701  51.0260167  46.3853426  30.3321262  50.1639997  46.8480416
  30.1430292  51.8810035  46.2909947  31.1850776  50.4767084  44.9435689
  31.7912550  51.2460805  44.4649946  31.8343595  49.6189664  45.1180416
  29.9464780  50.1073648  44.0458510  30.0817811  49.3443380  43.0624827
  28.8794982  50.6431439  44.3915266  31.4571960  51.4594427  48.8152859
  30.2979863  51.2530160  49.2247820  32.4222556  51.8865313  49.5805410
  33.3108872  52.1234094  49.1624863  32.1988999  52.2313631  51.0637039
  31.8831409  51.3236140  51.5773778  33.5912630  52.7744711  51.5730757
  33.8436281  53.6812138  51.0225209  33.7433655  53.0681152  53.0651796
  33.0944612  53.9214689  53.2631080  33.2675004  52.3008548  53.6760953
  34.7761188  53.1942412  53.3921457  34.5396971  51.8436227  51.2556172
  35.3963064  52.2659007  51.3554307  31.0573162  53.2401974  51.2522615
  31.0418262  54.2944756  50.6626052  30.2425475  53.0916232  52.2988443
  30.4736331  52.3376160  52.9298869  29.1675698  54.0422341  52.6364814
  28.9975021  54.8830581  51.9654308  27.8446566  53.2407511  52.5908003
  27.9184858  52.3331576  53.1911404  27.0607048  53.9101546  52.9439397
  27.3204763  52.6902076  51.1861133  27.6945253  51.7073717  50.9015943
  26.2586795  52.4815197  51.3195557  27.5115584  53.7194850  50.0427215
  26.9148712  54.5956752  50.2982075  28.5568665  54.0026984  49.9216509
  27.2192773  53.1974264  48.6433579  27.6493086  53.8231563  47.8604294
  27.8188080  52.2982156  48.5013971  25.7904799  52.8367371  48.3430410
  25.1784483  53.6378264  48.4128568  25.7379951  52.4727760  47.4025944
  25.4801893  52.2515995  49.1058593  29.3989806  54.6700019  54.0335246
  28.6936321  54.4146047  54.9725431  30.4432620  55.5166921  54.0357702
  30.9724616  55.6212957  53.1820677  30.9854400  56.2012836  55.1765306
  31.3548057  55.4068408  55.8249962  32.0686187  57.1910335  54.6844869
  31.5851680  57.8187910  53.9361334  32.3747313  57.8388070  55.5064958
  33.3936409  56.6734502  54.2101098  34.1934893  56.0910856  55.1740393
  33.7064940  56.0614980  56.1380160  35.5304251  55.7534377  54.9055051
  36.0081383  55.2990155  55.7613201  36.0589918  55.8907580  53.5988630
  37.0340932  55.4522202  53.4432229  35.2627931  56.5043132  52.5957057
  35.7040198  56.6658084  51.6225832  33.9589174  56.9400231  52.9429664
  33.3697659  57.3695232  52.1469544  29.8720326  57.0384333  55.9319017
  28.8968357  57.5497125  55.3119326  30.0207031  57.2135045  57.2937185
  30.7973093  56.8399849  57.8191887  29.1589879  58.1856710  57.9947623
  28.1701001  58.0582394  57.5535503  29.1018023  57.9124630  59.4364354
  30.0465915  58.2571338  59.8563074  28.3821070  58.6311003  59.8279952
  28.7885169  56.5303315  59.9229030  29.7195933  56.0030187  59.7161863
  28.7105836  56.6400485  61.0049832  27.5095086  55.9522729  59.2607465
  27.5003832  54.8718211  58.6237187  26.4669088  56.5939167  59.5391220
  29.5555302  59.6082106  57.7800712  30.6632054  59.9578377  57.3350244
  28.6608407  60.5524280  58.0935566  27.7221689  60.2126849  58.2479452
  28.9601586  61.9949676  57.8569925  29.1413094  62.1446156  56.7927431
  27.7507276  62.8872668  58.0882386  27.5284356  62.7725185  59.1488271
  27.8895380  63.9559223  57.9224286  26.4952427  62.4595290  57.4469461
  26.2977653  61.4220502  57.7186580  25.6264884  63.0563683  57.7226196
  26.5677800  62.2384720  55.6356024  26.4441895  60.4979350  55.3603526
  25.4671992  60.1726815  55.7169212  26.6721982  60.2462214  54.3241778
  27.1904693  59.9307881  55.9159026  30.0772582  62.5551844  58.7154019
  31.0160498  63.2811724  58.2831917  30.0978649  62.2187462  60.0026881
  29.4216156  61.5186864  60.2758002  31.1810679  62.4565397  60.9818461
  31.4087022  63.5082288  61.1568139  31.0214516  61.7463385  62.3484470
  30.6947790  60.7362549  62.1026174  32.2943219  61.6195555  63.3607158
  32.7711378  62.5961440  63.4453653  31.9122448  61.3541013  64.3459555
  32.9286882  60.8585156  62.9065223  29.8167838  62.5160093  62.9551029
  29.0331538  62.6523353  62.2102773  29.4963131  61.9858731  63.8518661
  30.1511402  63.8931563  63.5113233  29.2928195  64.5399759  63.6905856
  30.7653877  63.7880041  64.4059947  30.6607185  64.4917671  62.7564988
  32.4934698  62.0674941  60.3793997  33.4443820  62.8938178  60.4555464
  32.5184767  60.9029026  59.6023236  31.6622117  60.3810562  59.4847334
  33.7438801  60.4424854  58.9382464  34.5248440  60.5177250  59.6954388
  33.5875173  58.9681591  58.5594647  33.3895808  58.2896203  59.3889146
  32.7253619  58.8125329  57.9106739  34.8381362  58.3433102  57.8631478
  34.5476662  57.3093568  57.6750989  34.8571172  58.8117778  56.8788237
  36.2193177  58.4044619  58.6123155  36.9925729  58.2069132  57.8706613
  36.3876841  59.4345509  58.9261888  36.1887112  57.3559892  59.6857562
  35.3561794  57.4387111  60.3851481  36.0413684  56.3669598  59.2527943
  37.4645632  57.4026038  60.4180012  38.0898367  56.7823294  59.9235908
  37.9056411  58.3027634  60.5427931  37.3308038  57.1209608  61.3789048
  34.0890735  61.3668494  57.7719665  35.1538444  61.8866144  57.6560509
  33.0995031  61.6535718  56.9663509  32.1553637  61.4651592  57.2710698
  33.2851720  62.3597753  55.6512795  34.0915313  61.8263798  55.1470218
  32.0560273  62.2968774  54.7508017  31.3006331  62.7752752  55.3735618
  32.1485820  63.0303111  53.9495866  31.5800139  60.9427488  54.2686855
  31.6348594  60.1861355  55.0515458  30.1800396  60.9899314  53.7926763
  29.5502746  61.1532657  54.6683302  30.0972566  61.7908925  53.0587422
  29.9513054  60.0661498  53.2612910  32.3406081  60.5524991  52.9751618
  33.4185735  60.6281591  53.1182012  32.1988992  59.5823614  52.5000055
  32.0840656  61.3244383  52.2493755  33.7580693  63.8172704  55.7836620
  34.5306046  64.2982820  55.0221260  33.3629102  64.3759060  56.8439532
  32.7238690  63.8136092  57.3872484  33.8121787  65.6810046  57.3739208
  33.7519913  66.4238247  56.5786021  32.8529960  66.1909507  58.5028834
  32.6949992  65.3740020  59.2067766  33.2750789  67.3424268  59.3980811
  33.4709850  68.2165079  58.7773009  32.5766476  67.5677708  60.2046645
  34.1655967  67.0930294  59.9752796  31.5225573  66.4247829  57.7458621
  31.7532577  67.3692646  57.2522319  31.3032217  65.6292793  57.0347926
  30.2937970  66.5873797  58.6749689  30.3367393  65.7617074  59.3855992
  30.1668694  67.5768699  59.1133701  29.3829303  66.3819777  58.1116450
  35.2223024  65.5460016  57.9295640  35.9724728  66.4940576  57.6869899
  35.5267322  64.4870109  58.7394351  34.8080561  63.8404868  59.0305438
  36.8211927  64.2914141  59.3873573  36.9932713  65.1727084  60.0050848
  36.8552213  63.2229691  60.3454706  36.0478081  63.3099666  61.0715791
  36.9313738  62.2251811  59.9129039  38.1507310  63.2648173  61.1861355
  38.5121928  64.3371289  61.7527802  38.9056549  62.2188210  61.1370885
  37.9229500  64.1508683  58.3284004  38.9506266  64.8011510  58.4946959
  37.7692416  63.2512743  57.3363286  37.0168476  62.5781419  57.3282115
  38.7102484  63.1483210  56.2122100  39.5961346  62.7251605  56.6862246
  38.2277881  62.1829698  55.1076964  37.1815533  62.3816893  54.8724233
  39.0801180  62.2311029  53.8068879  38.8360936  63.1648713  53.3003904
  40.1192179  62.0682553  54.0922738  38.7254493  61.4212897  53.1691272
  38.2460513  60.7697412  55.6576422  39.1822955  60.2664126  55.8990238
  37.5929416  60.7036582  56.5283286  37.5088171  59.7114386  54.8152876
  36.5415943  60.0604881  54.4532235  38.0544981  59.3997327  53.9241172
  37.1892244  58.9143709  55.4864319  39.1386610  64.4816390  55.7158937
  40.3463889  64.7351013  55.5881397  38.1529732  65.3367873  55.4539148
  37.2115194  65.1781908  55.7837889  38.5012531  66.6598354  54.9533214
  39.2023440  66.5106091  54.1322805  37.2937306  67.3015040  54.3756183
  37.5853863  68.3411122  54.2234678  37.0029466  66.7773711  53.4652122
  36.4438929  67.3082490  55.0581873  39.1763790  67.6255043  55.9918890
  39.9379699  68.4864728  55.6298939  38.9508176  67.4566358  57.2895035
  38.2797236  66.7511959  57.5593783  39.7052994  68.1147835  58.3758141
  39.5867084  69.1926276  58.2593098  39.0103611  67.7206742  59.6777755
  37.9256318  67.8082436  59.6267763  39.1150306  66.6689113  59.9431454
  39.2656429  68.7364142  60.8016765  40.3093559  68.7907614  61.1106241
  38.9621617  69.7395483  60.4997672  38.3614677  68.3555946  61.9058923
  38.5742924  69.0303566  62.7349706  37.3107792  68.5781598  61.7218203
  38.5688663  67.0174238  62.5078008  38.5773084  66.2750847  61.8230532
  38.9020112  66.7153606  63.7577881  38.6999495  67.4632228  64.7573531
  38.3706784  68.4134635  64.6595104  38.9462830  67.1462395  65.6841467
  39.4130326  65.5517462  63.9664980  39.1638652  64.8991518  63.2376234
  39.6848990  65.2489928  64.8911509  41.2366160  67.7891366  58.4005853
  42.0817406  68.6470324  58.1516994  41.5643013  66.5277565  58.4106228
  40.7939848  65.8830485  58.5126865  42.9090952  66.0020251  58.2772027
  43.5042832  66.5390412  59.0155326  42.9949459  64.5101878  58.5665385
  42.4612614  63.8388327  57.8930185  44.0513326  64.2428632  58.5341247
  42.4307307  64.1753784  59.9453763  43.1087454  64.6308857  60.6677987
  41.3702526  64.4181462  60.0114683  42.4774290  62.6931868  59.9635773
  43.4718683  62.0188144  60.1203873  41.3797366  62.0146350  59.8393370
  41.5032972  61.0128994  59.8721764  40.5084734  62.4637838  60.0824644
  43.5706918  66.3258819  56.9205886  44.7550166  66.6572217  56.9613025
  42.8281981  66.3573174  55.8607967  41.8473205  66.1206456  55.9129065
  43.2544517  66.7924992  54.4893045  44.1376107  66.2215855  54.2027512
  42.1358464  66.5355381  53.4958186  41.1941892  66.9451338  53.8612416
  42.4908462  67.1496894  52.1329200  42.2068163  68.1969210  52.0333521
  43.5376085  67.0401420  51.8498437  41.9410524  66.6648056  51.3267994
  41.9227830  65.1184781  53.3217186  41.5593611  64.6892111  54.0992148
  43.7036349  68.2555229  54.5923428  44.8877573  68.5241533  54.3319778
  42.8168689  69.1598275  55.0793020  41.9192345  68.9069416  55.4666858
  43.1624269  70.5730482  55.1078121  43.6501716  70.7860547  54.1565222
  41.8769772  71.4473752  55.2009163  41.2638560  71.2103173  54.3315425
  41.3449527  71.1714006  56.1112755  42.0565747  72.5216206  55.1976491
  44.2941603  70.9225423  56.1377026  45.2588665  71.6363527  55.7827525
  44.2933784  70.2387081  57.2719968  43.4598380  69.7371099  57.5427654
  45.5379509  70.1770702  58.1476188  45.6678189  71.2282981  58.4067562
  45.2946104  69.2811373  59.3275246  44.3098133  69.5238069  59.7271332
  45.3231032  68.2592618  58.9474397  46.2593048  69.4380149  60.5480585
  47.2948889  69.2285082  60.2795487  46.2057207  70.4626763  60.9159917
  45.9613087  68.3417034  61.6551485  45.3491413  68.6761455  62.6995137
  46.3240659  67.1183504  61.4669364  45.9401796  66.3921037  62.0536075
  46.6077405  66.8005696  60.5504338  46.8703170  69.7735527  57.4904275
  47.8084756  70.4812843  57.7402643  46.8036207  68.9098768  56.4851730
  45.9631254  68.4038973  56.2449266  47.9738005  68.5179572  55.7354662
  48.7847785  68.3828414  56.4510921  47.8935961  67.5614408  55.2207036
  48.3345127  69.6254119  54.8203177  49.5036755  70.0194840  54.7094638
  47.3295469  70.2194270  54.1266494  46.3793794  69.9457168  54.3306112
  47.5440871  71.3051739  53.1497957  48.2832632  71.0061296  52.4070177
  46.2686032  71.6379519  52.4218035  45.4483425  71.7917582  53.1239217
  46.4881378  72.5209684  51.8222566  45.8381749  70.4840696  51.5040322
  45.6798104  69.6319038  52.1642376  44.9334360  70.8635027  51.0288017
  46.9206910  70.1937862  50.0423864  47.2162213  71.8113645  49.3924362
  47.8880496  72.4069769  50.0105548  47.7320371  71.7954008  48.4329821
  46.2609451  72.3364333  49.3913589  47.9805216  72.5922855  53.8158690
  48.7885867  73.2730159  53.1669831  47.5208771  72.9065833  54.9979002
  46.8414550  72.3072219  55.4433455  47.9392809  74.1108619  55.7330719
  47.8874177  74.9864876  55.0864656  47.1507812  74.2376455  57.0066987
  46.0891427  74.3153193  56.7701330  47.4555727  73.4562997  57.7026261
  47.5208054  75.4145881  57.9725177  48.1271603  76.4077400  57.5378018
  47.2805061  75.3281429  59.1835112  49.4221418  73.9687528  56.0061310
  50.1122351  74.9159675  55.6183156  49.9453792  72.7941518  56.2618203
  49.3011042  72.0485927  56.4853897  51.4003261  72.5831628  56.3055709
  51.8564350  73.3843257  56.8872597  51.7008433  71.2152392  57.0715425
  51.3447031  71.3657270  58.0904354  51.1800119  70.3860856  56.5936253
  53.1677399  70.8523093  57.1545378  53.9220937  71.0873481  58.3263109
  53.4671964  71.6576915  59.1228138  55.3124734  70.6933707  58.3263892
  55.8712336  71.0119187  59.1937065  55.8813080  70.0922094  57.2531598
  57.1968845  70.0240656  57.0989075  57.6565942  70.4398442  57.8319370
  55.0820996  69.8672119  56.0933550  55.5733607  69.4300711  55.2374909
  53.7219879  70.2121784  56.0780525  53.1145015  70.0357896  55.2036280
  52.1025612  72.6687638  54.9836510  53.1699211  73.3513391  54.9293395
  51.6094297  72.1837632  53.8188099  50.8030051  71.5753047  53.8259886
  52.2769677  72.4855921  52.5487318  53.3082409  72.1587152  52.6837212
  51.5843452  71.6350307  51.4028276  50.5444380  71.9640100  51.4198745
  52.0372783  71.8487385  50.4347849  51.4711813  70.0675683  51.3770523
  50.9554641  69.8051638  52.3007127  50.7710712  69.6365876  50.1916264
  51.2951357  69.9638253  49.2939845  50.7781642  68.5538473  50.0738419
  49.7265036  69.9391801  50.1187620  52.8270890  69.3939851  51.4514430
  52.8377868  68.3169216  51.2882627  53.4182116  69.7929351  50.6269759
  53.2644934  69.5297838  52.4397208  52.2465517  74.0408063  52.1422621
  53.2785020  74.5959239  51.8362491  51.1200869  74.7642229  52.2021568
  50.2353262  74.3318437  52.4267604  51.1641383  76.1909636  51.8630529
  51.6304716  76.3650608  50.8929053  49.7393212  76.7035227  51.7420387
  49.2805870  76.4642030  52.7004703  49.7968956  77.7910669  51.6984291
  48.9160363  76.1409822  50.6495320  47.5107068  76.2168458  50.4595956
  47.2558418  75.5467146  49.3303737  46.3061556  75.2974069  48.8819903
  48.3866242  75.0681087  48.7701091  48.4684672  74.5970365  47.8808607
  49.3924989  75.3916452  49.6164572  50.4358237  75.1321813  49.5211420
  51.9419085  77.0608632  52.8198806  52.5142453  78.0588479  52.3983335
  52.0664148  76.6687984  54.1241234  51.4821749  75.9343448  54.4961969
  52.9727358  77.3561305  55.0568302  52.7632509  78.4263185  55.0245381
  52.8702996  76.8579480  56.5056349  53.7222671  77.1565008  57.1159780
  52.1115396  77.5139039  56.9320514  52.6110692  75.8021146  56.5970700
  54.4323746  77.1963703  54.5441138  55.2763010  78.0669582  54.8492599
  54.8336405  76.1544186  53.8507139  54.1498550  75.4307815  53.6805470
  56.1464054  75.9217716  53.2196778  56.8837524  76.5641564  53.7025351
  56.5746351  74.4755543  53.3735868  55.6690839  73.8732802  53.4452379
  57.2353609  74.1627553  52.5645718  57.2532573  74.2955509  54.7160341
  58.0616381  75.0245017  54.7674965  56.5013300  74.4931749  55.4804065
  57.8677122  72.8711458  54.9195762  57.0989375  72.1080471  55.0355064
  58.3706575  72.6689588  53.9738778  58.7452199  72.5847170  56.1782667
  58.1769541  72.8596830  57.0664197  58.8319083  71.4979147  56.1723620
  60.0792849  73.2471695  56.1073281  60.5897048  73.1617928  56.9746177
  60.7810693  72.7846455  55.5467292  59.9720187  74.2406100  55.9647130
  56.0342863  76.4717023  51.7438514  57.0298784  76.3986773  51.0007298
  54.9615636  77.0635932  51.3177340  54.0919138  77.0807076  51.8301209
  54.8041477  77.5622507  49.9217090  53.8193044  77.9993370  49.7599771
  55.8046689  78.6790073  49.5206654  56.7628009  78.1835192  49.3619089
  55.4582889  79.1682104  48.6098425  55.9668292  79.6298380  50.5729482
  55.3749102  80.3770530  50.4582022  54.8393011  76.4059365  48.8582092
  55.1319606  76.7227428  47.7317269  54.3275070  75.1943345  49.2316811
  53.9200021  75.1083765  50.1515028  54.2682759  74.0469985  48.3152594
  54.9299739  74.2585096  47.4757328  54.7574250  72.8531749  49.0876482
  54.0958167  72.7847672  49.9508266  54.4005741  71.5628289  48.1814541
  53.3273828  71.4936111  48.0041116  55.0009688  71.6730122  47.2774017
  54.7845835  70.6213072  48.5743862  56.1954898  72.8812118  49.4795377
  56.7274058  72.5860282  48.5760571  56.4907802  73.8943014  49.7559634
  56.4937086  71.8475815  50.5987892  56.3906890  70.8136591  50.2690070
  57.4594412  71.9846984  51.0827918  55.8295456  72.0809338  51.4314982
  52.8849564  73.9634706  47.7706980  52.0116346  73.4623904  48.4677953
  52.5923149  74.3426890  46.5623225  53.3444064  74.6211635  45.9479046
  51.2877873  74.1632622  45.8417236  50.5122126  74.1880596  46.6069915
  51.1460827  75.2683296  44.7541432  52.0373242  75.1154743  44.1467974
  49.8941980  75.0263344  43.8933019  48.9851021  75.2688169  44.4434273
  50.0366848  75.6281518  42.9949377  49.8151160  74.0158341  43.4932104
  51.2071950  76.6444575  45.3934157  50.3107891  76.8704464  45.9698456
  51.9326347  76.7089538  46.2045307  51.3077920  77.7765649  44.2668000
  50.4946367  77.7205251  43.5419662  51.2329659  78.7605162  44.7306523
  52.2936734  77.7091488  43.8081063  51.3314555  72.6799407  45.3117608
  52.3664901  72.2969057  44.8609199  50.1977667  71.9602443  45.3839190
  49.4054514  72.4251156  45.8047907  50.1153295  70.5327205  45.1389861
  51.0099877  70.1015304  45.5881094  48.9687816  69.9781257  45.9702649
  48.8775280  70.4565571  46.9447382  48.0462224  70.2229269  45.4432782
  49.0054745  68.5100086  46.0832066  48.5542809  67.6360218  45.1311822
  49.0470774  66.4085062  45.3512708  48.9366352  65.5106486  44.7625363
  49.8451666  66.4681659  46.4427296  50.5618303  65.7713733  46.5923228
  49.8810869  67.8270715  46.8048491  50.4723014  68.3261934  47.5587434
  49.9442611  70.2148153  43.6653400  50.5305888  69.2629446  43.1200262
  48.8738472  70.7885689  43.1130295  48.3927358  71.3593193  43.7939008
  48.4152475  70.6854815  41.6783071  47.4661578  71.2214052  41.6909738
  49.3786300  71.3211836  40.6673674  50.2793773  70.7249678  40.5237737
  48.9189031  71.3725461  39.6797065  49.9167617  72.7208420  40.9537251
  49.1726981  73.3962363  41.3768005  50.7043837  72.7983650  41.7032068
  50.5561180  73.3094069  39.6302313  49.8356205  73.3707984  38.8142360
  50.6899533  74.3626860  39.8774501  51.8104513  72.6782024  39.2101803
  51.9667367  71.7358736  39.5377431  52.7966377  73.2390688  38.5483560
  52.6680733  74.3744357  38.0417407  51.9778235  75.0504541  38.3391113
  53.3084781  74.6680317  37.3182429  53.8662331  72.5646988  38.3407918
  53.9316465  71.6302315  38.7172369  54.6171009  73.1115329  37.9438171
  47.9522000  69.2839204  41.2107182  47.8770895  69.0671366  39.9510336
  47.6026166  68.3484434  42.0526969  47.8430492  68.4950169  43.0223192
  47.0944815  67.0525674  41.7559259  46.4671751  67.1304103  40.8673100
  48.3170439  66.0923638  41.5055340  49.0149334  66.5590375  40.8108219
  48.8177029  65.9859961  42.4681552  47.8585792  64.7071774  40.9043530
  46.7416158  64.5812407  40.3679074  48.6998965  63.7415950  40.8749978
  46.3219379  66.4903268  42.9789550  46.1944061  65.3011245  43.3837593
  45.7552520  67.4461708  43.7265641  45.8411169  68.3859725  43.3671605
  45.2007395  67.2223042  45.0476825  45.7958381  66.4574663  45.5470767
  45.2198187  68.5583498  45.9099697  46.2197504  68.9895134  45.9616091
  44.5869598  69.3468772  45.5035215  44.6875122  68.1999149  47.3764128
  43.8075358  67.5568294  47.3916603  45.8141281  67.5280836  48.1895587
  46.0898728  66.5732543  47.7427255  46.6836083  68.1834055  48.1313915
  45.4330837  67.3085779  49.1865740  44.1918876  69.4853356  48.0045417
  43.8674233  69.2167928  49.0094341  44.8924239  70.3135712  48.1149712
  43.2878862  69.8487130  47.5154667  43.7732660  66.5900923  44.9193064
  42.7571614  67.2628819  45.2919047  43.6609323  65.2936819  44.5759841
  44.5135899  64.8840516  44.2199446  42.4590645  64.5527791  44.3418990
  41.5995597  65.0983903  44.7316476  42.4084837  64.2600834  42.8996093
  41.4574774  63.7796628  42.6682561  42.4087767  65.2338473  42.4095840
  43.3903738  63.2774469  42.2636987  44.4047265  63.6407412  42.4229847
  43.2189718  62.3028074  42.7217873  43.1309320  63.3368070  40.7606244
  42.1664668  62.8848091  40.5291794  43.2727649  64.3642730  40.4271353
  44.0689588  62.2689863  40.1377395  44.5832220  61.8305651  40.9921137
  43.5376858  61.4425426  39.6658743  45.0281137  62.8543666  39.2206872
  44.6132187  63.3858044  38.4685083  45.4860738  63.6079884  39.7135085
  45.6296716  62.1157880  38.8860474  42.3899555  63.2426106  45.2205556
  43.4546002  62.8073956  45.6888200  41.2864912  62.5701787  45.2774318
  40.5379361  62.9125977  44.6920127  41.1096129  61.3944566  46.1320274
  41.4331810  61.6913512  47.1300231  39.6182318  61.0185447  46.1981536
  39.3003012  60.6460093  45.2242555  39.5195325  60.1744378  46.8803617
  38.8096809  62.1137601  46.5924768  38.4313521  62.4894354  45.7931919
  41.9406403  60.2010744  45.7194812  42.3748284  59.4339810  46.5628751
  42.2197868  60.1070365  44.4251644  41.6497134  60.6222998  43.7690690
  43.2197988  59.1113215  44.0329125  42.9696507  58.0659662  44.2177753
  43.5333741  59.1521725  42.5482443  43.9875477  60.0607924  42.1525307
  44.4164338  58.5134079  42.5321447  42.4541440  58.6317468  41.5731148
  41.7871565  59.4733306  40.9852217  42.2390392  57.3587149  41.4767369
  41.5472934  57.0401246  40.8125743  42.6901818  56.6256851  42.0041653
  44.5920682  59.2492704  44.8008889  45.2785666  58.2165244  44.9538551
  45.0567311  60.4342276  45.2553974  44.3923865  61.1940364  45.2901237
  46.3817650  60.4898113  45.9766107  47.0173973  59.6131055  45.8538124
  47.2569084  61.6647875  45.4471970  46.7852695  62.6002359  45.7489686
  48.2083617  61.6088117  45.9745159  47.5642599  61.6427505  43.9224494
  48.1446836  60.6824072  43.4386528  47.1270880  62.6600910  43.1971466
  47.1582532  62.6440023  42.1870977  46.5992170  63.4504756  43.5395563
  46.2008600  60.5923666  47.5089781  47.1848030  60.8413803  48.2033054
  44.9804984  60.5526501  48.0534192  44.1573081  60.1986387  47.5891007
  44.7682363  60.6290167  49.5169761  45.6887468  60.9814722  49.9806996
  43.5742838  61.5622763  49.7795537  42.6520969  61.2280206  49.3033021
  43.5491315  61.6532520  51.3184796  42.6597505  62.1884697  51.6504321
  43.4255216  60.6604517  51.7503364  44.4395333  62.1966625  51.6371560
  43.9543320  62.9470952  49.1169228  44.9864199  63.1807365  49.3765907
  43.8632237  62.7593765  48.0469546  43.0998555  64.1651709  49.5017495
  43.1937237  64.3735685  50.5673855  43.3828045  65.0349976  48.9089592
  42.0573628  63.9535593  49.2658183  44.5406447  59.2203003  50.0691766
  43.4971628  58.5197674  49.9516469  45.6187738  58.7012972  50.5486526
  46.4741720  59.2367353  50.5897607  45.5463942  57.4059789  51.1997223
  44.9196770  56.7332839  50.6138101  46.9641195  56.7907605  51.2292227
  47.6863339  57.4118844  51.7597662  46.9128112  55.8171801  51.7174006
  47.5473145  56.7556165  49.8448837  46.9211526  56.1197926  48.7525219
  46.0033670  55.5910212  48.9636386  47.4525576  56.1857076  47.4161608
  46.9146058  55.5835423  46.6990110  48.5787112  56.9426885  47.2039344
  48.9335161  57.1354332  46.2018856  49.1696005  57.6770558  48.2592280
  49.9461634  58.3876275  48.0150236  48.6448368  57.5235457  49.5512609
  49.3085078  58.0146787  50.2478556  44.9225501  57.4980322  52.5798215
  45.0159891  58.5370278  53.2705018  44.2431752  56.4789341  53.0179845
  44.1672604  55.6760681  52.4097705  43.5524861  56.2759315  54.3152360
  43.5545200  57.1827760  54.9202764  42.0589421  55.9959800  54.0825229
  42.0044222  55.0123125  53.6179511  41.6135221  55.9513782  55.0758777
  41.2332756  57.0285889  53.2343061  41.6326746  57.0498181  52.2200997
  39.7649027  56.6104897  53.2379034  39.7080345  55.6603317  52.7083425
  39.2326446  56.5720549  54.1880598  39.2012730  57.3427942  52.6598181
  41.3127531  58.4703204  53.7042154  40.9555804  58.5512103  54.7311747
  42.3374292  58.8372214  53.6518450  40.6544892  59.0614310  53.0670570
  44.2391538  55.1427005  55.0527977  44.1419139  53.9463065  54.6831333
  44.8936780  55.5103537  56.1358831  44.6895257  56.4617865  56.4073653
  45.7504891  54.7267991  56.9580424  46.0968636  53.8180402  56.4658778
  46.9440854  55.5109557  57.4286411  47.5258788  55.8961936  56.5914091
  46.7424204  56.3821955  58.0511188  47.9618917  54.6215515  58.2033615
  49.0597591  53.9112971  57.6315391  49.6967796  53.3609230  58.6472054
  50.6772211  52.9185284  58.5515787  49.0987439  53.6818246  59.8434585
  49.2918937  53.2691393  60.7451397  47.9968525  54.4192486  59.5482125
  47.2245333  54.6825365  60.2559332  44.8535491  54.1957845  58.1241463
  44.5279860  54.9558004  59.0109430  44.4104412  52.9291703  58.0070951
  44.8726233  52.2734665  57.3933996  43.6147660  52.1713117  58.9833642
  43.5113808  51.1761848  58.5511478  44.4266898  52.0909564  60.3928708
  44.3656536  53.0623822  60.8828181  43.9239498  51.3436281  61.0063257
  45.8904002  51.7550618  60.2504044  46.3906463  52.3726090  59.5045423
  46.2685309  51.9723139  61.2483246  46.2326037  50.2943835  60.0318737
  47.0354453  49.7854925  60.8327459  45.5471243  49.6385080  59.1838812
  42.2153917  52.7466476  59.1874481  41.6833998  52.8587092  60.2783729
  41.7151994  53.3007371  58.0631667  42.2755299  53.2651826  57.2241479
  40.4426685  53.9783508  57.7534335  40.5031259  54.5617339  56.8341566
  39.1996146  53.0863317  57.4670458  38.6879497  52.7788012  58.3782478
  38.4055518  53.6275350  56.9520386  39.5157560  51.8906864  56.6136456
  40.5525655  51.8455936  55.9811761  38.7181463  50.9635793  56.4740239
  40.0944009  55.1692786  58.6972696  38.9184634  55.4579827  58.9986379
  41.1231560  55.8834590  59.1535616  42.0699559  55.5552566  59.0298919
  40.9978123  56.9782003  60.0951413  40.0387080  57.4611427  59.9108546
  41.0688548  56.5338495  61.5460157  40.0760731  56.1581271  61.7945032
  41.6885849  55.6578321  61.7346907  41.2998796  57.7122662  62.6500698
  42.2114938  58.2244427  62.3451900  40.1446360  58.7376552  62.6030933
  40.0039849  59.2726782  61.6641781  39.3134336  58.0680215  62.8250804
  40.2538897  59.5161115  63.3584047  41.5944237  57.1792745  64.1062197
  42.3676577  56.4141657  64.0368525  42.0951930  58.0129770  64.5983785
  40.6922400  56.8608423  64.6267989  42.0066211  58.0690684  59.8534938
  41.5692996  59.1715446  59.5180896  43.2958160  57.7827235  59.9194649
  43.6000016  56.9022596  60.3099267  44.4012194  58.7665614  59.6326505
  44.0966215  59.6858031  60.1322191  45.7340348  58.3448226  60.2176705
  46.1502670  57.4466997  59.7591478  46.8263763  59.4003827  60.1850221
  47.5896692  58.9307633  60.8060620  47.2325865  59.5843159  59.1905132
  46.4765664  60.2921219  60.7043258  45.6319853  58.0809832  61.6060006
  44.8672158  57.5083436  61.6941229  44.5613824  59.0550377  58.1473367
  44.6888191  58.1840441  57.2638397  44.6328950  60.3030200  57.7168856
  44.5457764  61.0468877  58.3945855  44.8027715  60.7423677  56.3669913
  44.3282291  60.0172221  55.7059138  44.1016050  62.0380077  56.0567972
  44.3933995  62.7460533  56.8330649  44.3471364  62.6554346  54.6441800
  43.5643939  63.3657036  54.3790100  45.3554543  63.0510701  54.5251107
  44.4273453  61.9256129  53.8382266  42.5775576  61.8171128  56.1190958
  42.1240918  61.4608709  57.0433006  42.0611386  62.7389458  55.8513717
  42.3648253  61.2080285  55.2409418  46.2722037  60.9116227  55.9705423
  47.0755014  61.5420881  56.6885111  46.6488289  60.3923674  54.8094211
  45.9951880  59.8891134  54.2270957  47.9872569  60.6806140  54.1650691
  48.4933281  61.4025422  54.8066380  48.8467309  59.4087893  54.2491381
  48.4066717  58.5639269  53.7211500  49.7147893  59.6978092  53.6557553
  49.2396292  58.9735532  55.6914208  48.3400690  58.8341866  56.2905088
  49.8342335  58.0649822  55.5849722  50.0987751  59.8715217  56.5236046
  51.0067443  60.2358911  56.0443208  49.5605337  60.7827247  56.7849380
  50.4743335  59.0794117  57.8360206  49.5470909  58.9017451  58.3805394
  51.0644787  58.1936004  57.5978446  51.4247010  59.9087929  58.6117560
  52.3240809  59.9349968  58.1547285  51.0994617  60.8471879  58.7976463
  51.5787201  59.4603431  59.5040732  47.9059501  61.1461751  52.6706315
  47.6166387  60.3227027  51.7401579  48.3079850  62.3740824  52.3590793
  48.4965370  63.0029177  53.1263630  48.5845852  62.8637477  50.9521834
  47.8185656  62.4025994  50.3291255  48.5697916  64.4098257  50.7315778
  49.4217250  64.7248367  51.3336670  48.8218877  64.6247257  49.2183919
  49.8108628  64.2593171  48.9407614  48.0447159  64.0620936  48.7005133
  48.6009659  65.6609745  48.9604866  47.2221895  65.0004597  51.1536218
  46.4516112  64.7750125  50.4173286  46.9568509  64.5525349  52.1118320
  47.3534267  66.4965516  51.4213136  46.4717422  66.8496372  51.9573118
  48.1223552  66.6345348  52.1820261  47.6087830  67.1406351  50.5796245
  49.9647445  62.2503533  50.5181814  50.9391654  62.3481052  51.3094117
  49.9648080  61.6061649  49.3811228  49.1231933  61.5718794  48.8234829
  51.1667441  60.8741961  48.9635411  52.0342274  61.2325508  49.5183596
  51.0598499  59.8570138  49.3411384  51.5270644  60.8561997  47.4163438
  52.0241264  59.8528944  46.9746790  51.4025969  61.9649337  46.6797200
  51.2357444  62.7640460  47.2739360  51.9193944  62.0417883  45.3927344
  52.8545472  61.4858881  45.3342343  50.8823081  61.6405320  44.3184861
  50.3468537  60.7841712  44.7283565  50.1749442  62.4445722  44.1154374
  51.6496549  61.3097226  43.0311474  51.2657085  60.3198416  42.3612087
  52.6655483  61.9229953  42.6492519  52.3484183  63.5930790  45.1810609
  51.5334871  64.4533353  45.5831643  53.4828204  63.9758053  44.6058753
  54.1823357  63.2845962  44.3797043  53.9459638  65.3576417  44.5188617
  53.1345552  66.0680592  44.6788743  54.9111827  65.6297315  45.7239080
  55.6344678  64.8142846  45.7037563  55.3377967  66.6251314  45.6052967
  54.2314607  65.5457737  47.1187969  54.4355064  64.3008436  47.7889985
  55.1115484  63.5614265  47.3856243  53.7301230  64.0155622  48.9685288
  53.8808732  63.0496795  49.4271244  52.7481890  64.9953779  49.3693478
  52.2151862  64.8033027  50.2885350  52.5384022  66.1871712  48.6553681
  51.8390260  66.9494653  48.9637942  53.2103353  66.4162099  47.5046100
  53.0410683  67.2703592  46.8658208  54.6410204  65.5658479  43.1139633
  55.2568883  66.5988410  42.9445024  54.3676457  64.6849507  42.1436724
  53.6965785  63.9443167  42.2864277  55.1063550  64.5818247  40.8323728
  56.1595648  64.5076876  41.1012255  54.8511673  63.6145897  40.3987271
  54.7374242  65.7539578  39.9127729  55.3584935  65.9302136  38.8746906
  53.8421840  66.6176790  40.2643247  53.3909598  66.2616309  41.0941635
  53.3705236  67.7938625  39.5599136  54.0033733  67.9190744  38.6813328
  51.9321842  67.5054737  39.0896478  51.3665488  67.2350924  39.9819787
  51.6052190  68.4063640  38.5702719  51.8341345  66.3605743  38.0394009
  52.3358445  65.4517567  38.3714230  50.3197967  66.1254846  37.8933194
  49.9447693  65.7913238  38.8600195  49.8480479  67.0991363  37.7629030
  50.2049993  65.5769448  36.9577535  52.5682538  66.6943022  36.7207081
  52.5783747  65.8447519  36.0379527  52.3101757  67.6395592  36.2434768
  53.6101630  66.9425373  36.9217198  53.5612274  69.1175342  40.3395155
  53.1589550  70.1323162  39.7728901  53.9799035  69.0645224  41.6389378
  54.1096133  68.1870879  42.1206028  53.8579411  70.1948739  42.5328995
  52.8128158  70.4973307  42.5977620  54.1521925  69.6950183  43.9755251
  53.3001637  69.1943869  44.4348759  54.8459894  68.8549640  43.9931745
  54.3331470  70.5576862  44.6164101  54.6334730  71.4764222  42.1530349
  55.4982321  71.5145886  41.2490742  54.5062380  72.6038849  42.8929647
  53.8472416  72.6776139  43.6553693  55.2944660  73.8458982  42.6376344
  56.3159705  73.5784567  42.3673042  54.7511960  74.5673624  41.4263817
  54.7430771  73.9047301  40.5605552  53.4140453  75.1836955  41.4973925
  53.1458891  75.4544016  40.4768375  52.7445128  74.4714143  41.9800577
  53.4191447  76.0904059  42.1016683  55.6757195  75.6116727  41.1204742
  56.4220462  75.1929820  40.6836841  55.4562608  74.7977680  43.7602009
  54.7289274  74.7219097  44.7195285  56.4555623  75.7295909  43.7306624
  57.1014047  75.7464834  42.9545565  56.5495729  76.8278001  44.7297457
  56.0771883  76.4310984  45.6283561  57.9795812  77.1910544  45.0802419
  58.4906365  77.2936971  44.1227514  58.3219105  78.4562701  45.8685394
  57.7430149  78.4893219  46.7918143  59.3841853  78.5130550  46.1063076
  58.0821219  79.3308292  45.2651641  58.6648138  76.1093194  45.8501008
  58.0724547  75.8884373  46.7377762  58.6513608  75.1587738  45.3168017
  59.6822660  76.3498385  46.1584359  55.8041351  78.0898373  44.2427215
  56.0094116  78.4154558  43.0677772  55.0283701  78.6926285  45.1242659
  55.1217907  78.2982344  46.0492604  54.2841646  79.9354699  44.9293495
  53.4646274  79.5558731  44.3193772  53.7653603  80.4787994  46.2630006
  53.3800162  79.6994550  46.9198393  54.6129691  80.8578765  46.8338997
  52.7195987  81.5384506  45.9361779  53.0607945  82.2060363  45.1454815
  51.7693798  81.0499681  45.7185501  52.6313729  82.3168674  47.2769156
  52.5319029  81.6038925  48.0952075  53.5459134  82.8880693  47.4324665
  51.3381450  83.2011822  47.2128393  51.4917966  83.9595404  46.4455642
  50.4837771  82.5974679  46.9053437  51.1545708  83.7603174  48.4961811
  50.2120797  84.0920776  48.6430408  51.2981910  83.1196837  49.2641151
  51.8825069  84.4523829  48.6056361  55.1988622  80.9656654  44.1994040
  56.2462660  81.3271867  44.7373830  54.7976478  81.5766222  43.1206251
  53.8410892  81.3888287  42.8562329  55.5185493  82.6638321  42.4865046
  54.8346415  82.8763344  41.6651503  55.4863855  83.9056187  43.4423730
  56.1457335  83.7166469  44.2893033  55.7724374  84.8036952  42.8949956
  54.1684789  84.1222993  43.8489573  53.6917722  84.5748525  43.1492143
  56.9461247  82.3944040  41.9573298  57.6976772  83.3417898  41.5660894
  57.2780687  81.1215674  41.7392695  56.6434096  80.3891679  42.0239320
  58.5390966  80.7102249  41.1989484  59.2681018  81.5032718  41.3603708
  59.0229649  79.5168607  41.9618555  59.1199502  79.7271184  43.0265839
  58.2488380  78.7564029  41.8609969  60.3067940  78.8837444  41.4838360
  60.5004452  78.0052141  42.0991097  60.1961519  78.5371028  40.4562816
  61.6220826  79.7469313  41.6319889  62.4786355  79.1910519  41.2518243
  61.5067831  80.7218472  41.1583055  61.8513998  80.0830031  43.0443322
  61.7533901  81.0419081  43.3463907  62.1493366  79.2306639  44.0064136
  61.8282233  79.5380167  45.2114636  61.3951312  80.3858291  45.5497466
  62.0684551  78.8681675  45.9284990  62.7036032  78.1087407  43.8332063
  63.0181148  77.8026629  42.9231932  63.1163078  77.5816250  44.5889237
  58.5085864  80.4071106  39.6885511  59.4861820  80.4868943  38.9720308
  57.3585003  79.8845243  39.2170433  56.6242133  79.6925805  39.8837435
  57.2200100  79.5034916  37.8118413  58.1888462  79.0802782  37.5460017
  56.0470439  78.6370820  37.5861648  56.0533634  77.8342596  38.3225175
  55.2058272  79.2664332  37.8776069  55.8917078  78.1888914  36.1474362
  55.1101146  78.7622715  35.2046497  54.4539125  79.5945433  35.4136367
  55.2146078  78.1596703  33.9859213  54.6485402  78.4850258  33.2144050
  56.1827876  77.1985490  33.9386491  56.6931539  76.4104826  32.9371270
  56.3857983  76.5656153  31.9130828  57.6932270  75.4767311  33.2130199
  57.9223445  74.8502478  32.3634154  58.1307001  75.3999609  34.5095760
  58.7625584  74.5691334  34.7873397  57.6821291  76.2665876  35.5240449
  57.8930721  76.0710270  36.5649177  56.6625770  77.2039775  35.3198202
  57.0488509  80.7848364  36.9061393  56.1627594  81.6105129  37.2199564
  57.9749831  80.9890761  36.0046238  58.7920132  80.4054512  36.1182497
  58.1085669  81.9728052  34.9185757  57.2000690  82.5740065  34.8772043
  59.1547314  83.0568073  35.1679356  59.2092674  83.2039434  36.2461818
  60.0507428  82.6114090  34.7343391  58.9647439  84.2752502  34.3991856
  59.1914519  84.1399883  33.4760032  58.4018717  81.2921633  33.5327968
  58.4114983  82.0191492  32.5558707  58.5838896  79.9870456  33.4817847
  58.4835152  79.4529723  34.3330824  58.7504402  79.2174628  32.1945651
  59.4392069  79.8363819  31.6196742  58.9868023  78.1635989  32.3382894
  57.5414200  79.1492052  31.2266167  56.5075638  79.8401635  31.2868326
  57.7094180  78.3504701  30.1347175  58.4674691  77.6934379  30.2523233
  56.7632070  78.2292302  28.9702667  55.9664267  78.8978834  29.2943395
  57.1293006  78.7470041  27.5680446  56.1761162  79.0928266  27.1660492
  57.8257422  79.5742673  27.7053867  57.7600279  77.7960313  26.7716097
  58.3780931  78.1637388  26.1364941  56.1683757  76.8601891  28.8945763
  54.9829872  76.7117897  28.5376368  56.9807562  75.8040345  29.2699177
  57.9604034  75.9999955  29.4188058  56.5895419  74.4141789  29.2151290
  55.8764184  74.2384798  28.4101186  57.7711620  73.4428810  28.9071641
  58.4895353  73.8768552  28.2113773  58.4183615  73.3361191  29.7772881
  57.5539750  72.0988214  28.3231484  57.2627543  70.8853392  28.9456622
  57.1986674  69.9061139  27.9802893  56.9919920  68.8534308  28.1066250
  57.3354022  70.5094633  26.7656395  57.0374510  70.1237367  25.8806954
  57.5568035  71.8633732  26.9711646  57.7359990  72.5858574  26.1883469
  55.7344501  74.0776606  30.4233506  56.2000568  73.2941676  31.2451822
  54.5322552  74.6019436  30.4761206  54.3310423  75.1751072  29.6696010
  53.6006100  74.2950701  31.5527073  54.0336933  73.6004129  32.2730330
  53.2599842  75.5373438  32.3063061  54.2102635  75.9957799  32.5804513
  52.6498910  76.3338778  31.8798675  52.6499878  75.1143177  33.6831654
  51.6367116  74.7218241  33.6065549  53.2996318  74.3429826  34.0976563
  52.6183624  76.3060307  34.7101347  53.0242181  76.1804940  35.8047820
  52.0944855  77.4734189  34.3956019  51.9220044  78.1415220  35.1327827
  51.6455146  77.6297202  33.5045906  52.3496196  73.5463659  31.0942763
  51.2127127  74.0203925  31.2109741  52.4861385  72.3486954  30.5673598
  53.4330611  71.9991778  30.5800121  51.3857409  71.5544708  30.0039731
  50.5523626  72.2545356  30.0816440  51.6362802  71.4004091  28.4917096
  52.1513367  70.4394233  28.4927312  50.6216357  71.2770955  28.1126075
  52.3877816  72.4867404  27.7724782  51.8780277  73.7505974  27.7173646
  50.9064556  73.9855191  28.1255796  52.4745456  74.7445035  26.9540461
  52.0044146  75.7003529  26.7717696  53.7004775  74.5216309  26.3720557
  54.1994406  75.2504329  25.7506312  54.3090423  73.2606224  26.4605505
  55.2814194  73.1397524  26.0067883  53.6196744  72.2895279  27.1588803
  54.0326063  71.2928802  27.2131538  50.9915251  70.2388414  30.6473666
  49.9724918  69.6696628  30.2726283  51.7452302  69.7887507  31.6071229
  52.4967971  70.3750476  31.9423423  51.5735841  68.3746906  32.1609168
  51.2540543  67.7923744  31.2958692  52.9318718  67.7708210  32.5229625
  52.7764571  66.7342084  32.8219136  53.6382648  67.6723660  31.6985806
  53.6910004  68.4812668  33.6409641  52.9990768  68.8957140  34.3737732
  54.3115302  67.6547660  33.9889485  54.5926575  69.6344152  33.1523617
  55.8124688  69.5467491  33.3905236  54.1412448  70.6656770  32.6160124
  50.5694564  68.2826100  33.2976643  50.2575961  67.1602502  33.7429785
  50.3192683  69.4171245  34.0076972  50.8716795  70.1787379  33.6392682
  49.6633534  69.4376148  35.3293139  50.0782098  68.7323545  36.0490471
  49.6924345  70.7972774  35.9372192  49.1761694  71.4468883  35.2300317
  49.0951911  70.8209345  36.8487425  51.0256381  71.4934920  36.2387941
  50.8472305  72.5034525  36.6084583  51.5848936  70.9847829  37.0243113
  51.9470101  71.6578793  35.1015433  51.5050400  72.0127515  33.9892888
  53.2375517  71.5371955  35.3243411  53.7150556  71.9841663  34.5551441
  53.6150013  71.0681912  36.1364691  48.2175816  69.0706870  35.1176702
  47.7169399  68.2840289  35.9805380  47.5850172  69.4634272  33.9892668
  48.1440891  70.0035033  33.3450500  46.1312753  69.2537508  33.6880103
  45.5725999  69.5524648  34.5751364  45.6823239  70.0711224  32.4496503
  45.7057240  71.1116525  32.7729451  46.3507351  69.9634500  31.5949299
  44.2784605  69.8873166  31.8978567  44.2344635  68.8894101  31.4622767
  43.2355689  70.1443854  32.9526651  42.2530132  69.9621706  32.5189832
  43.3789059  69.4902619  33.8120701  43.2085351  71.2042952  33.2063765
  44.1444961  70.9685976  30.8729446  44.2330528  71.9981199  31.2200606
  44.8152864  70.8461277  30.0225103  43.1854104  70.9311667  30.3549489
  45.8160218  67.7897111  33.5911185  44.8184718  67.2456087  34.1050480
  46.7001772  67.0890108  32.8657321  47.4246747  67.6573965  32.4521102
  46.4024017  65.8406959  32.0634587  45.5328244  66.0213707  31.4305582
  47.6736727  65.4414894  31.2625808  48.5346344  65.3372539  31.9233885
  47.4727199  64.5297396  30.6992202  47.9323525  66.4184578  30.3091346
  48.1141339  66.0176262  29.4564315  45.9755636  64.5576370  32.8136087
  45.2235039  63.7702221  32.2749678  46.2820617  64.4358531  34.0925491
  46.9148995  65.1247140  34.4726017  45.7107752  63.4151708  34.9251020
  45.4083025  62.5648997  34.3153723  46.4705845  63.0634552  35.6226635
  44.5275818  63.8027733  35.7777166  44.0492980  63.1063730  36.6346140
  44.0387994  65.0282052  35.5440065  44.5040137  65.6175677  34.8679684
  43.0771869  65.7814487  36.4426920  42.5006254  65.1347017  37.1035052
  43.8703158  66.5159080  37.5162376  44.6143269  67.1084961  36.9856606
  43.1907292  67.0807056  38.1544340  44.5086801  65.5832402  38.3480024
  45.4545447  65.7362320  38.4029895  42.0399266  66.6784881  35.7534247
  41.6389738  67.7933976  36.1357891  41.4207753  66.1568527  34.7175328
  41.6249276  65.2054199  34.4460507  40.4060030  66.6998639  33.7986258
  40.7327173  67.5860676  33.2541822  40.0482002  65.6212470  32.7259298
  39.5075361  64.7561434  33.1099077  39.1124608  66.1726034  31.6162844
  39.2826168  67.2400610  31.4730359  39.4360466  65.7928410  30.6470240
  38.0820309  65.8866375  31.8301832  41.3371353  64.9742789  32.1125624
  41.8482469  64.4493159  32.9197816  41.0029242  64.2253664  31.3944301
  42.4389576  65.9096822  31.4288422  43.0441503  65.3751448  30.6963332
  41.9032676  66.6811938  30.8761180  43.1957868  66.2797649  32.1212657
  39.0717464  67.0389839  34.4242198  38.4392201  68.0215607  34.0386937
  38.7624571  66.2385253  35.4433014  39.1976096  65.3330196  35.5458282
  37.5183292  66.4649416  36.2499056  36.8398634  67.1268471  35.7115903
  36.8644442  65.1075556  36.5670992  37.5514291  64.4785557  37.1337983
  36.0467273  65.4248293  37.2141273  36.2938675  64.3387468  35.2906333
  36.9480925  64.3084607  34.4190868  36.1306213  62.8632472  35.7319389
  35.2669245  62.8620710  36.3969528  35.9606141  62.3099949  34.8086478
  37.0238799  62.5415855  36.2674078  35.0461280  64.9595485  34.8129960
  34.8290838  64.4505030  33.8738531  34.1567798  64.8799891  35.4386135
  35.1389917  66.0193435  34.5770049  37.8002584  67.3190084  37.5063799
  36.9001845  67.8661791  38.0850139  39.1370286  67.4646670  37.8377255
  39.8161133  67.0734023  37.1997780  39.6122932  67.9419164  39.1677051
  38.7648805  68.1284657  39.8271541  40.5712641  66.8887962  39.7640285
  41.1842865  66.5113323  38.9451216  41.2072863  67.2783504  40.5585330
  39.9286872  65.7208661  40.3496669  39.3558249  65.6918631  41.5565027
  39.3741867  66.4682494  42.3061220  38.7923627  64.4518444  41.8507477
  38.2321742  64.2969067  42.6766624  38.9835445  63.6565497  40.7452592
  38.5802205  62.3194907  40.4574106  37.8857135  61.8381288  41.1303324
  38.8801257  61.7496903  39.2630595  38.5392327  60.7534391  39.0231834
  39.4701812  62.5252096  38.2911088  39.5803391  62.1161492  37.2978662
  39.8528068  63.9069682  38.4815945  40.2276215  64.5067282  37.6662517
  39.7299777  64.4566134  39.7943466  40.3136569  69.3027812  39.0559467
  40.4947378  69.9318329  40.1031968  40.7089395  69.8499547  37.9343038
  40.7104942  69.3892791  37.0352218  41.2858061  71.2174723  37.7865284
  42.0045338  71.2746264  38.6047173  42.1400711  71.2543768  36.4836764
  41.5267982  70.9077398  35.6525306  42.3782767  72.3099068  36.3524685
  43.4536514  70.4898145  36.5887296  43.2159395  69.4387091  36.7538370
  43.9865897  70.6912216  35.6598001  44.5422473  71.2017310  37.8320075
  44.4697301  70.0802751  39.3269764  43.4410353  69.9005009  39.6377582
  44.9016913  69.1061213  39.1004815  45.0054463  70.5460016  40.1545638
  40.2930507  72.3970587  37.7806589  39.1363258  72.2977221  37.3770157
  40.8175156  73.5328278  38.2141379  41.8012729  73.5705398  38.4373383
  40.0584999  74.8093668  38.2599686  39.1329212  74.6575398  38.8157811
  40.9933305  75.7350381  39.0023003  41.8327564  75.9816432  38.3525688
  40.5243617  76.6874364  39.2477198  41.2660628  75.3532662  39.9861338
  39.6435670  75.3572638  36.9123008  40.5049462  75.2290313  36.0082785
  38.4484167  75.9954277  36.6816938  37.3448010  76.0963522  37.6629866
  37.5192435  76.8649275  38.4158948  37.2715332  75.1100921  38.1202775
  36.0814491  76.5423331  36.9376238  35.4755589  77.1948444  37.5668678
  35.5199067  75.6763024  36.5880642  36.6593732  77.4235578  35.7991011
  37.0525301  78.2970926  36.3184253  35.9540737  77.6307315  34.9936214
  37.9463663  76.5899079  35.4487150  37.7155223  75.7560382  34.7858595
  39.0487358  77.3652283  34.7285645  39.1744893  77.2318701  33.4879273
  39.7856421  78.2497179  35.3986811  39.5662082  78.3965436  36.3738477
  40.9992624  79.0055728  34.9226399  40.7730547  79.2784835  33.8920120
  41.1361756  80.1992421  35.8978127  41.6569634  81.0130990  35.3934368
  40.1387650  80.6058142  36.0611654  41.7706835  79.8769146  37.2675319
  41.9109679  78.7981066  37.3364708  42.7793564  80.2813367  37.3549831
  40.8117462  80.3487955  38.3832289  40.7362106  81.5863578  38.6493567
  40.3251844  79.5159327  39.1942518  42.3476693  78.2391342  34.6785175
  43.2047505  78.7772177  34.0719905  42.4405582  76.9696866  35.0786968
  41.6782058  76.5519851  35.5940009  43.5088088  76.0220383  34.5422433
  44.4646553  76.4885925  34.3023796  43.9466081  75.0393214  35.5687151
  43.0498595  74.4456862  35.7499968  44.9571562  73.9848498  35.1021487
  45.7642999  74.4552048  34.5400863  45.1724967  73.3678891  35.9742977
  44.4274670  73.3669063  34.3777343  44.5086174  75.6459846  36.8745813
  45.4101610  76.1961528  36.6063649  43.7487872  76.2607996  37.3562363
  44.8297528  74.8527516  37.5504944  43.0022573  75.3377883  33.2513008
  43.7012640  75.2346938  32.2477181  41.7476923  74.9779210  33.1510848
  41.1678969  75.0380229  33.9757672  41.1327452  74.3718220  31.9598409
  41.7236974  73.5608714  31.5352133  39.7315134  73.8407959  32.4826045
  39.2743428  74.5955356  33.1225639  38.7621971  73.4021234  31.4564420
  37.7321197  73.2044132  31.7543635  38.4633549  74.2149340  30.7958497
  39.1345816  72.5494511  30.8887011  39.9716878  72.5997394  33.4016006
  40.2991285  71.7976785  32.7402672  40.7590428  72.9307822  34.0780847
  38.7023795  72.0176582  34.1130321  39.0077142  71.2276029  34.7995868
  38.1903918  72.7737076  34.7095477  38.0400167  71.6361322  33.3370673
  40.8930773  75.3227290  30.8269640  40.9895335  74.9616152  29.6722922
  40.5429066  76.6060902  31.1152740  40.2260770  76.7454810  32.0635373
  40.4844480  77.7684779  30.1996806  39.5913114  77.6492017  29.5850927
  40.3276719  79.1037889  30.9743585  39.3979133  79.0218161  31.5377813
  41.1609833  79.2033726  31.6703536  40.2192699  80.3251509  29.9541242
  41.2588290  80.5158420  29.6876007  39.5588996  79.9938827  29.1524849
  39.6345310  81.6828231  30.4947983  40.3996312  82.1469830  31.1175650
  39.4785052  82.3715683  29.6660745  38.3824626  81.4773416  31.3034640
  37.4899141  81.4764876  30.8300208  38.2746785  81.3446467  32.6444948
  39.2578504  81.3121904  33.4831828  40.2037419  81.4109037  33.1449832
  39.2003876  81.4951313  34.4749347  37.1635801  81.1065264  33.2027384
  36.3622742  81.0671880  32.5891820  37.0433860  81.0530920  34.2041610
  41.6967178  77.8137169  29.2399408  41.5788060  78.1318638  28.0261062
  42.8806819  77.5815763  29.8279285  42.8208273  77.2502499  30.7799628
  44.1028139  77.5400256  29.0040353  44.9804729  77.3959552  29.6328369
  44.1330804  76.3494369  28.0341965  43.5163351  75.5687899  28.4776112
  43.6206047  76.6429878  27.1182317  45.5130093  75.8226870  27.7174748
  46.1271592  76.6668010  27.4029251  45.9172397  75.5030010  28.6774840
  45.5375223  74.5118408  26.4252402  44.4261518  73.2898473  27.0529346
  43.4314875  73.7334675  27.0207013  44.4248456  72.3667525  26.4732792
  44.5821859  73.0626320  28.1080899  44.4048206  78.8801582  28.4313246
  45.0810203  78.8920467  27.4286125  43.9644603  80.0143697  28.9008009
  43.4097080  80.0461072  29.7445436  44.3117307  81.3367005  28.3478962
  45.1701321  81.2635858  27.6799124  43.1250368  81.6992279  27.4514513
  42.1982147  81.7042113  28.0257831  43.3482998  82.6888736  27.0534814
  42.9505826  80.8298622  26.2021931  43.8549393  80.6887903  25.6100507
  42.6631105  79.8643382  26.6196906  41.8667706  81.4297283  25.2960159
  40.7050489  81.0469197  25.2869416  42.1398946  82.4288356  24.4606808
  41.4429958  82.7748060  23.8175553  42.9976758  82.9586050  24.5214914
  44.5902954  82.4216885  29.3829792  44.8275359  83.5659423  28.9223838
  44.6703002  82.1510918  30.6588302  44.5849319  81.1735239  30.8973724
  44.8926474  83.1894156  31.7081974  44.5554577  84.1525068  31.3252491
  44.0748181  82.9409216  32.8986645  44.3705093  81.9963140  33.3565609
  44.2099544  83.7528940  33.6132358  42.5664496  82.8861245  32.7095835
  42.0394022  81.8120385  32.5478884  41.9082636  83.9284757  32.6867523
  46.3788845  83.3414294  32.0282177  47.2177516  82.4376032  31.8382694
  46.7602235  84.4856373  32.6815620  45.9950412  85.0794439  32.9662703
  48.0955212  84.6734923  33.2650947  48.7959566  83.9929007  32.7817984
  48.4567246  86.1510224  33.1331817  48.4751045  86.3850831  32.0685453
  47.7674560  86.8568880  33.5953468  49.8579752  86.4644198  33.5052946
  49.9399839  86.6206864  34.5809164  50.5124323  85.7119567  33.0660609
  50.3006507  87.6951944  32.7310296  50.3557336  87.5889351  31.6469725
  49.7192868  88.5736490  33.0096255  51.7664897  87.8513366  33.2131114
  51.6691907  88.0725364  34.2764686  52.3813306  86.9541307  33.1465666
  52.3805123  89.0004929  32.5372112  51.8648161  89.8601466  32.6612551
  53.3642285  89.1964293  32.6592581  52.3148164  88.8256910  31.5446275
  48.0649390  84.2337470  34.7994746  47.1755064  84.6350948  35.4881971
  48.9545266  83.4165838  35.2907303  49.4070089  82.8719101  34.5715917
  49.0986684  82.9030953  36.6989141  49.9100063  82.1757090  36.6658388
  49.5508525  84.0763305  37.5867331  48.6858638  84.7347792  37.6600601
  49.8242517  83.5835657  38.5194676  50.7281856  84.8911688  37.0111018
  51.6537713  84.3870095  36.4121163  50.8082729  86.2329342  37.0942509
  51.6261741  86.6869816  36.7141922  50.0367953  86.7735331  37.4598314
  47.9476521  82.1180093  37.2793645  47.3754084  82.5069327  38.3146803
  47.5480921  80.9874554  36.6839733  47.9560566  80.4689159  35.3763416
  48.8471266  79.8527867  35.4969369  48.1177606  81.2748803  34.6604650
  46.7628378  79.6753937  34.8592011  47.0626068  78.8417699  34.2232461
  46.0579520  80.2587814  34.2653528  46.1434596  79.1028082  36.1749790
  46.7242863  78.2149990  36.4229287  45.0874276  78.8315079  36.1646492
  46.3647957  80.2264261  37.1687144  45.5141442  80.9080036  37.1921465
  46.5186398  79.7086334  38.6322457  45.5219891  79.3336962  39.3097489
  47.7644833  79.4565562  39.0624631  48.5714503  79.7569725  38.5360352
  48.1065156  78.5921922  40.1524350  47.2277922  77.9957269  40.3986327
  49.2383529  77.6321399  39.6337542  50.0353908  78.3184033  39.3516568
  49.4757574  77.0615609  40.5312985  48.8205821  76.6941308  38.5562346
  49.3336560  76.9326055  37.2560554  49.9699382  77.7544717  36.9609015
  49.0702567  75.9122608  36.2887459  49.4795573  76.1000568  35.3072574
  48.2766705  74.7597913  36.5461250  47.9538408  73.8682155  35.5769157
  47.7713295  74.2950372  34.7363327  47.8016195  74.5232696  37.8872364
  47.3739309  73.5701539  38.1615265  48.1301911  75.4649825  38.8863673
  47.8075129  75.1823579  39.8773487  48.4813481  79.3273664  41.4347261
  49.6130558  79.1893795  41.9183235  47.5717195  80.0809094  42.0487178
  46.6784954  80.1073640  41.5782394  47.6117581  80.5711284  43.4585661
  48.6711115  80.7757314  43.6168468  46.7137664  81.8234246  43.6616227
  46.9532672  82.4085235  44.5506000  46.8595313  82.4452783  42.7781179
  45.3575015  81.4234590  43.5949067  44.9851111  82.2962389  43.4502498
  47.3681787  79.4160354  44.5207946  46.8059916  78.4118734  44.0908649
  47.6245039  79.6210222  45.8211498  47.8845473  80.5615644  46.0801534
  47.0804853  78.6855264  46.8304786  47.6641195  77.7710492  46.7216273
  47.2399776  79.2973805  48.2453958  46.8440816  80.3119978  48.1961100
  46.7114566  78.6513132  48.9469845  48.6540437  79.4814364  48.8602834
  49.7816795  79.0260793  48.2035480  49.7090058  78.6672678  47.1877962
  51.0954072  79.2756386  48.7447095  51.9493005  78.8182509  48.2686005
  51.1754530  79.8259814  50.0284566  52.1489750  80.0207752  50.4524866
  50.0729321  80.2976130  50.7673343  50.1935979  80.7261230  51.7514019
  48.8048384  80.0589913  50.1574130  47.8985958  80.3611814  50.6601163
  45.5657592  78.3162123  46.5886754  45.2280317  77.1445762  46.7571363
  44.7774623  79.1575850  46.0519875  45.0798126  80.1062494  45.8801939
  43.3408111  78.8074350  45.7000252  42.9664251  78.1439410  46.4798745
  42.4920839  80.0914499  45.6359789  42.9824079  80.7407779  44.9101549
  41.4996014  79.7602774  45.3311770  42.3314006  80.8360783  46.9968725
  41.2749759  80.8893023  47.2602428  42.9014028  80.2947822  47.7514122
  42.8972214  82.2314327  47.0654211  43.9213084  82.5700097  46.4781354
  42.3149470  83.0621861  47.8391713  42.6001524  84.0310183  47.8305135
  41.4249419  82.8553435  48.2699926  43.0957219  77.9804671  44.4151702
  41.9846941  77.5842939  44.2520261  44.0735194  77.5780702  43.6597804
  44.9134278  78.1347155  43.7253082  44.1377609  76.4195619  42.6740500
  43.2978920  76.5264194  41.9874893  45.3860435  76.2823184  41.7978401
  45.1910605  75.4230723  41.1576567  45.5259945  77.2511028  41.3166962
  46.6016093  76.0649504  42.4353870  46.8351973  76.7229593  43.0943118
  43.9656534  75.1133642  43.4451030  43.0172936  74.4114468  43.1468086
  44.7581963  74.7890150  44.4940483  45.6119757  75.2863709  44.7027486
  44.5295756  73.5703643  45.3187465  44.6291627  72.7182119  44.6459421
  45.6768971  73.3208845  46.3788588  45.5966636  74.1856057  47.0381182
  45.4185220  72.4579786  46.9931021  47.1062437  73.2056603  45.7630409
  47.1203439  72.5642442  44.6137639  48.0754248  73.6906031  46.3855797
  43.1311867  73.4555687  45.9407725  42.4716712  72.4401603  46.0040889
  42.6564546  74.6582738  46.4579167  43.3619352  75.3749476  46.5528053
  41.3366521  74.8144480  47.0689181  41.2678368  74.1806224  47.9530711
  41.1235738  76.2559769  47.6123195  41.2572547  76.8822822  46.7305927
  39.6911529  76.3938336  48.0392081  39.0932947  76.1654371  47.1562689
  39.4397771  75.6599851  48.8053565  39.5018856  77.4226557  48.3463318
  42.0159954  76.6024976  48.7661740  43.0613847  76.4636232  48.4931992
  41.7865156  77.6191035  49.0842391  41.8891815  75.8406006  49.5357325
  40.2518373  74.2740602  46.1350600  39.3855284  73.5833358  46.6515836
  40.2685170  74.5002399  44.7641867  41.1687854  74.7809477  44.4021012
  39.2237146  73.9646994  43.8983471  38.2827161  74.2666501  44.3572215
  39.1815607  74.4105945  42.4374698  39.0733888  75.4943387  42.4349420
  40.1205712  74.0881644  41.9859877  38.0242474  73.8884599  41.5641740
  38.2604267  72.7225214  40.8584172  39.2216700  72.2448483  40.9771169
  37.2803356  72.2298404  39.9842415  37.5439230  71.3797195  39.3709080
  36.0403048  72.9338894  39.8590237  35.0324796  72.4341058  39.0436135
  35.2392462  71.4959986  39.0287645  35.8444454  74.2640577  40.4360604
  34.9496852  74.8653248  40.3725922  36.8697612  74.6929031  41.3314196
  36.8542121  75.6638923  41.8037111  39.2512001  72.4454704  43.8826350
  38.2426277  71.7189242  43.9043952  40.4926833  71.8618595  43.7859147
  41.3420784  72.4055511  43.8420509  40.6218972  70.4336111  43.5931860
  39.9319626  70.0244458  42.8553901  41.9981960  70.0743186  43.1069891
  41.9691833  69.0802346  42.6601903  42.4139553  70.8819312  42.5056646
  42.5280171  70.0275675  44.0583659  40.1353423  69.6954095  44.8989991
  39.5104928  68.6433200  44.8409328  40.3581147  70.3232372  46.0560686
  40.8916322  71.1806754  46.0240554  39.6909992  70.0139073  47.3056149
  39.9205042  68.9589768  47.4599619  40.4120451  70.7026264  48.4565353
  41.3843573  70.2166549  48.5334425  40.6227262  71.7495532  48.2374105
  39.8195954  70.5071200  49.7958324  40.0945624  69.3918055  50.6347822
  40.8877927  68.7195347  50.3428856  39.4220738  69.1445678  51.8532048
  39.6151054  68.3135332  52.5152095  38.5198239  70.1532211  52.3212536
  38.0754657  70.0635540  53.3019200  38.2496765  71.2859062  51.5025035
  37.6157866  72.0445039  51.9368021  38.8878208  71.4597822  50.2416483
  38.6524418  72.3388229  49.6603970  38.1849432  70.1533377  47.2944561
  37.5180504  69.2878564  47.7674912  37.7162235  71.2178052  46.6135805
  38.4333314  71.9233167  46.5150933  36.3355082  71.4729777  46.1639204
  35.6542723  71.8084152  46.9455888  36.3740261  72.2800197  45.4326471
  35.6508553  70.2416916  45.5574809  34.4873845  69.8877195  45.8659116
  36.4336909  69.5650618  44.6557655  37.3417963  69.9838227  44.5153734
  36.0955673  68.2405313  43.9928197  35.0143426  68.2050648  43.8636675
  36.6440956  68.1550357  42.5371789  37.7307598  68.0798871  42.5662926
  36.2334490  66.8915821  41.7767855  36.6299341  65.9878223  42.2392689
  35.1463285  66.8301877  41.7174759  36.6938181  66.9031014  40.7890058
  36.1979369  69.2749394  41.6166122  36.5117364  70.2798867  41.8980494
  36.6293146  69.2452130  40.6166144  34.7124683  69.3992877  41.3466762
  34.5728269  70.3314796  40.7998960  34.4400379  68.6894201  40.5659689
  33.9978514  69.3190403  42.1655047  36.3044675  67.0030561  44.8106522
  35.5630218  66.0134149  44.6024441  37.2477250  66.9852177  45.7548587
  37.9154185  67.7416908  45.8037456  37.4110299  65.8869782  46.6937387
  37.3466390  64.9396074  46.1583777  38.7114806  65.9445106  47.4612215
  38.8146759  66.9792836  47.7889432  38.7798278  65.0711759  48.6770308
  38.6009776  64.0188260  48.4545060  39.8009554  65.0208348  49.0563437
  38.0610929  65.4071472  49.4246620  39.9141588  65.6932520  46.5869582
  39.9434568  66.5027637  45.8588302  40.8445904  65.6938785  47.1547772
  39.7827666  64.7597828  46.0394901  36.1822383  65.8612969  47.6125818
  35.5215070  64.8019593  47.7061927  35.9176729  67.0358315  48.2461838
  36.4729049  67.8207907  47.9385908  34.5791283  67.3899110  48.8271143
  34.4636797  66.8578286  49.7706444  34.4252680  68.9607715  49.1955141
  34.9245015  69.5538871  48.4302594  33.3520587  69.1377430  49.1227076
  35.0092660  69.3381404  50.5983630  36.0631640  69.0910373  50.7211358
  34.6555650  70.7198910  50.9847395  34.8194181  70.9851445  52.0293394
  35.2044930  71.4077579  50.3419416  33.5970789  70.8811068  50.7814724
  34.3709392  68.5333389  51.7598855  33.3390513  68.8408493  51.9279382
  34.3605386  67.4505240  51.6347549  34.8740011  68.7306324  52.7063484
  33.4374195  66.8427094  48.0573953  32.6347175  66.1137993  48.6237587
  33.3087330  67.2246164  46.7917963  33.8091895  68.0363344  46.4600038
  32.1962222  66.7498087  45.9093404  31.1994305  67.0504790  46.2323785
  32.4239928  67.3212821  44.5068146  32.5382830  68.3955744  44.6484472
  33.3053751  66.9654250  43.9740144  31.2494610  67.0352972  43.6198502
  30.2003249  67.9391778  43.6089281  30.3100047  68.8254449  44.2175642
  29.0830289  67.6237568  42.7656510  28.2177314  68.2697620  42.7352955
  28.9746622  66.3812613  42.0848166  27.9179664  66.1662873  41.2236231
  27.2403165  66.8361904  41.3424025  30.0443433  65.5037108  42.1486407
  29.8826803  64.5834746  41.6069661  31.1822337  65.8464350  42.8486718
  32.0051365  65.1514310  42.9216749  32.1700766  65.1856806  45.8355786
  31.0853458  64.6185684  46.0811817  33.2100710  64.4161371  45.4789480
  33.9792134  64.8980133  45.0358485  33.2491483  62.9293312  45.3601613
  32.5687241  62.5851567  44.5810889  34.7181484  62.3908923  45.1083295
  35.4295281  62.6504210  45.8929547  34.5221380  61.3196731  45.0779595
  35.2889465  62.7848993  43.8161248  34.8376422  62.2071493  43.0091860
  35.0923530  63.8213570  43.5419380  36.8499254  62.4102197  43.7552401
  37.0933759  61.2391515  43.3581040  37.7306942  63.2284375  44.1545032
  32.8909045  62.2786856  46.7164543  32.0322483  61.4332659  46.7009555
  33.4896730  62.7866457  47.7920391  34.1430009  63.5536847  47.7173947
  33.1668681  62.3938739  49.1209429  33.4533523  61.3433569  49.1616111
  33.9071326  63.3326041  50.1010445  33.8546033  64.3589569  49.7379059
  33.4104038  63.5200589  51.0533245  35.3453515  62.9328938  50.4299398
  35.8725046  62.6611762  49.5163271  36.0340365  64.1543777  51.1248872
  37.0512028  63.8641224  51.3878409  36.1038122  64.9716211  50.4072846
  35.5102691  64.5035477  52.0149490  35.3416356  61.7520878  51.4578413
  35.0038021  62.1386212  52.4184903  34.6795069  60.9513262  51.1290748
  36.3783550  61.4279291  51.5487972  31.7469767  62.5886585  49.4651440
  31.1721980  61.6419954  49.9581413  31.2100633  63.7865105  49.2630212
  31.6947355  64.5569533  48.8254874  29.8663545  64.0979986  49.8215619
  29.7325295  63.5881729  50.7751392  29.6250258  65.6000594  50.1220728
  29.6504898  66.2158768  49.2229074  28.6097671  65.6555720  50.5160806
  30.5350572  66.2271299  51.2646290  31.5854127  66.3011520  50.9833819
  30.1904250  67.2462970  51.4370735  30.6521504  65.3775047  52.8705032
  29.0675783  65.6296059  53.6887729  29.1510994  66.3271010  54.5225198
  28.2772076  66.0191696  53.0464519  28.6859957  64.6526855  53.9833747
  28.7066431  63.5661449  48.9377406  27.5718076  63.3235569  49.4251422
  28.9362802  63.3552297  47.6040597  29.8157766  63.7647433  47.3244338
  27.9786308  62.8427241  46.6153880  26.9394742  62.8519437  46.9426286
  28.0816205  63.6272252  45.3134551  27.2511898  63.3513747  44.6638465
  27.9890634  65.1434762  45.4179975  28.3428700  65.5591055  44.4748675
  26.9643178  65.5043205  45.5072437  28.5868086  65.5186498  46.2498927
  29.2730880  63.2491878  44.6950500  29.9164199  63.9247911  44.9220172
  28.1865655  61.3846198  46.3563821  27.2313277  60.7572377  45.9062747
  29.3370349  60.8106460  46.5849256  30.1206525  61.4163189  46.7823687
  29.7061555  59.4823171  46.2078417  30.6509279  59.1614835  46.6475837
  29.0182273  58.7466482  46.6234726  29.8641417  59.3481875  44.7303724
  29.8681708  58.2193698  44.2487302  29.9565016  60.4124933  43.9278926
  29.8491745  61.3730091  44.2210860  30.0311829  60.3351227  42.4007471
  30.1657241  59.3199252  42.0261516  28.7690309  60.8574217  41.7191233
  28.7833428  61.9457501  41.7687270  28.7705682  60.5408393  40.6756870
  27.4042882  60.4624754  42.3904695  27.4565789  60.8549104  43.4062301
  26.6082785  60.9995843  41.8736062  27.1018123  58.9589572  42.3909645
  27.6256184  58.2432187  41.5078022  26.4184464  58.3463472  43.4192957
  26.1873041  57.3728520  43.2845573  26.0768162  58.8790323  44.2069989
  31.2061831  61.2436354  41.8019497  31.7728153  62.1945864  42.3165779
  31.5404338  60.8594440  40.5231079  31.0092952  60.1568403  40.0300624
  32.3836791  61.8051841  39.7085288  33.2010386  62.2014262  40.3120829
  33.1708459  61.0691829  38.5259411  32.4387374  60.5664351  37.8944264
  33.5840899  61.8326366  37.8673482  34.2855702  60.1076663  38.9734068
  33.9359510  59.3124154  39.6310933  34.9129336  59.4696700  37.7293220
  35.4493013  58.5748181  38.0448276  34.2507385  59.1864619  36.9119378
  35.6410749  60.1581926  37.3000847  35.3502320  60.8712602  39.8239410
  35.0419768  60.9510184  40.8667370  36.1929633  60.1803184  39.8488678
  35.6766192  61.7506955  39.2689105  31.5894688  63.0857266  39.1822770
  30.3667159  63.0687218  38.9938378  32.3509432  64.1265988  38.8955060
  33.6310141  64.5433888  39.4489595  34.4378486  64.0814988  38.8791371
  33.6798578  64.2237157  40.4907817  33.6496450  66.0385295  39.3412130
  34.6325446  66.5081511  39.3635968  33.1847009  66.4817733  40.2217384
  32.8887255  66.3056580  38.0092717  33.4986108  66.1478529  37.1196456
  32.4054660  67.2826561  37.9772895  31.7769580  65.2170177  38.0770815
  30.9542144  65.4882942  38.7381807  31.1670565  64.8560419  36.7676043
  31.5389316  63.9176524  36.0532984  30.1508721  65.6496742  36.3640672
  29.7578451  66.2889624  37.0394889  29.6813157  65.7578050  34.9059186
  28.8936797  66.5116384  34.9247542  30.7480788  66.4431407  34.0509499
  31.5033308  65.7144187  33.7553225  30.3827720  66.8172634  33.0948913
  31.4754533  67.6265326  34.6762043  30.8398388  68.4395695  35.6171757
  29.7662450  68.3500276  35.6876573  31.5278184  69.4377216  36.2883027
  30.9878457  70.1647633  36.8757965  32.8820541  69.6921844  36.0035919
  33.4435630  70.7185468  36.6309315  34.2273553  71.0846220  36.2145620
  33.5497982  68.9523563  34.9902660  34.5326794  69.1937471  34.6131705
  32.8774405  67.8202789  34.4850365  33.4979077  67.2417775  33.8162445
  29.0859512  64.5315871  34.2485193  29.4006244  64.2100158  33.1365411
  28.1383034  63.8768907  34.9583716  27.9193043  64.3072875  35.8463130
  27.3435591  62.8120360  34.3534947  27.9409478  62.0273030  33.8912212
  26.6242635  62.0861091  35.4669043  27.3993266  61.5818800  36.0431154
  26.1404245  62.8566940  36.0664815  25.8198434  60.9978632  35.0078191
  25.1857713  60.7858588  35.6966222  26.3912102  63.4486687  33.3780956
  25.1442384  63.4762634  33.6209490  26.8525090  64.0209332  32.2525408
  27.8514253  63.9103806  32.1479351  26.0596660  64.6454522  31.2216790
  25.3749448  63.9170035  30.7883448  25.0894906  65.7096665  31.7267698
  24.6234626  66.0845806  30.8153498  24.3475313  65.2892062  32.4067114
  25.7752644  66.8809044  32.4332441  26.5144551  66.7806588  33.4133915
  25.3962278  68.0591017  31.9860445  25.6759687  68.8990152  32.4711428
  24.7192750  68.1789322  31.2454464  26.9578789  65.2587111  30.1260326
  26.5038599  65.4828518  29.0184796  28.2434720  65.5403368  30.3630605
  28.5626741  65.2433819  31.2737596  29.2228768  65.9531901  29.4109741
  28.8417658  65.8609826  28.3935611  29.5462680  67.4503720  29.5673753
  29.7500580  67.6430555  30.6213373  30.8211050  67.8364910  28.8104659
  31.7310804  67.5322247  29.3288189  30.9643051  67.2665261  27.8929063
  30.7991944  68.9176301  28.6768724  28.3175242  68.4476932  29.2424151
  27.5275721  68.2246978  29.9594958  28.5710776  69.4958554  29.4055186
  27.9437762  68.3144817  27.7398862  27.3073395  67.4343569  27.6562104
  27.2619257  69.1439481  27.5509646  28.8097723  68.2948044  27.0785931
  30.4242086  64.9871619  29.6310090  30.9821381  64.9335181  30.7760644
  30.6727104  64.1866799  28.6136824  29.9975709  64.2074143  27.8624223
  31.7050035  63.1241086  28.6712262  32.0965209  63.0846257  29.6880650
  31.0701340  61.7396810  28.3945552  31.8508028  60.9831844  28.3220972
  30.4057372  61.3164642  29.1479167  30.2673630  61.7533640  27.1354482
  30.8776493  61.5272850  26.1050794  28.9725790  61.9190203  27.1885571
  28.4026369  61.9160498  26.3544622  28.5344206  62.0362048  28.0911018
  33.0058296  63.2952189  27.8064242  34.0298419  62.8015126  28.2135923
  32.9999027  63.9269985  26.6151272  32.1022587  64.3598137  26.4532433
  34.1945689  64.1617384  25.8301459  34.7484667  63.2249410  25.7629306
  33.7301937  64.5060007  24.3801289  32.9565986  63.8272152  24.0198974
  33.2102939  65.4637470  24.4021084  34.8650109  64.6713179  23.4026883
  36.0721498  64.6517892  23.7193403  34.6230553  64.9484441  22.1734774
  35.2863230  65.3313958  21.5155070  33.6179774  65.0425964  22.1450904
  35.1654696  65.1883217  26.4822905  34.6793353  66.2435104  26.9521280
  36.4641421  64.8647011  26.4934010  36.6526223  63.9828373  26.0396428
  37.5213105  65.7519561  26.9260108  37.3796427  65.8209255  28.0042786
  38.8639283  65.0436550  26.7073350  38.8992142  64.1080372  27.2666134
  39.0041246  64.7754114  25.6607322  40.1001009  65.8334917  27.1606132
  40.1649330  66.6792851  26.4757283  39.9366924  66.1178825  28.2002547
  41.4134226  64.9603401  27.1358885  41.4049136  64.3063356  26.2643693
  42.3215510  65.5591416  27.2125018  41.4799320  64.0095387  28.2637516
  40.6591971  64.0108711  28.8533866  42.4451373  63.1815686  28.6036330
  43.6044908  63.0898858  28.0089704  43.7621108  63.6631439  27.1932884
  44.3350740  62.4393944  28.2637940  42.2726027  62.4241544  29.6429220
  41.3027077  62.2957443  29.8940187  42.9230443  61.6917724  29.8876836
  37.5643642  67.1626324  26.3346195  37.6974450  68.1354803  27.0401998
  37.4105751  67.3121377  25.0078301  37.5612217  66.4857937  24.4475818
  37.2450062  68.6004234  24.3966609  38.1284774  69.1252556  24.7614331
  37.2440902  68.5337707  22.8378897  36.3172185  68.0251922  22.5722196
  37.0562929  69.5360039  22.4532614  38.4667991  67.8209566  22.2334322
  38.3917616  67.4143618  21.0400257  39.4899878  67.7240296  22.8868227
  35.9708595  69.2077186  24.9376449  36.0268300  70.3626007  25.2589915
  34.8289605  68.5027948  25.0030682  34.9079330  67.5172453  24.7980696
  33.5661016  69.2046253  25.3700129  33.6209719  70.1734970  24.8734005
  32.3977575  68.3674326  24.8961751  32.6476401  67.9471254  23.9223360
  32.2584662  67.6185502  25.6748952  31.0301264  69.1303748  24.7630347
  30.7198590  69.4141073  25.7685290  31.1425310  70.0750385  24.2293038
  29.9938298  68.3044325  24.0881623  30.1562414  67.0629162  24.0219368
  28.9071244  68.8986099  23.6749002  28.1326722  68.2999937  23.4253399
  28.6435375  69.8448935  23.9090995  33.5747588  69.5675398  26.8673185
  33.0439420  70.5676506  27.2382980  34.2119490  68.7884796  27.7289048
  34.6225327  67.9335677  27.3814041  34.3573116  69.0823052  29.1651827
  33.3588402  69.2737998  29.5594868  34.8382126  67.8516994  30.0090420
  35.8468358  67.7027597  29.6244342  34.8841034  68.3815883  31.4707078
  35.6865097  69.0966833  31.6484331  33.9633709  68.9173960  31.7017111
  35.1926387  67.5638008  32.1213364  34.0070965  66.5014653  29.9845457
  33.1821268  66.5117086  30.6968863  33.5525265  66.3457112  29.0054943
  34.7441888  65.2158941  30.3781542  34.0588528  64.5842162  30.9441884
  35.0950175  64.7120422  29.4784107  35.5758643  65.4094250  31.0550380
  35.2657892  70.3685727  29.2625656  34.9825999  71.3689145  29.9357529
  36.3614230  70.4497889  28.5246698  36.5786948  69.7663910  27.8141134
  37.3682462  71.5070917  28.6392952  37.5947381  71.6104525  29.7005435
  38.6790918  71.1284950  27.9163024  38.3893539  70.7069328  26.9541745
  39.6877221  72.3195874  27.7296007  39.2334535  73.1064471  27.1265775
  40.0069541  72.6979386  28.7011573  40.5265773  71.8885534  27.1820400
  39.3566049  70.0633709  28.8170868  39.6743284  70.5582398  29.7346960
  38.6109320  69.3041342  29.0511161  40.5492771  69.2958162  28.2495925
  41.5117525  69.8063256  28.2613913  40.6573234  68.3821730  28.8338519
  40.1917211  68.9545180  27.2774452  36.7291543  72.8076842  28.0709689
  37.0331321  73.9353685  28.5779192  35.8738933  72.7001804  27.0189478
  35.8040979  71.7377839  26.7195826  35.0383536  73.7378071  26.4049133
  35.7660474  74.5198663  26.1889638  34.4405909  73.1550524  25.1398403
  35.1886584  72.9327815  24.3800096  33.9072177  72.2449961  25.4170704
  33.3060069  73.9499214  24.5151201  33.5587329  75.3380231  24.2438615
  34.4812305  75.8317262  24.5102979  32.5144057  76.1222929  23.6297411
  32.6252763  77.1210714  23.2346942  31.2960260  75.4791109  23.4797215
  30.5457523  76.0909863  23.0010182  31.0609541  74.0906538  23.6125669
  30.2774401  73.5025982  23.1574213  32.1050786  73.3100577  24.1519915
  31.9428967  72.2665653  24.3805517  33.9501179  74.2169443  27.3514557
  33.9612843  75.3752761  27.7606754  33.0225077  73.3952433  27.7955826
  33.0870804  72.4251323  27.5209902  31.9899138  73.7092410  28.8228399
  31.2676487  74.4376108  28.4543071  31.1911750  72.4399487  28.9597287
  31.8014031  71.5614973  29.1669721  30.5072814  72.5659583  29.7988592
  30.4425754  72.1355604  27.5642358  31.1638725  72.0705850  26.7505770
  29.8977835  71.1954320  27.6557906  29.0167899  73.2298708  27.1921410
  27.8639717  72.8031301  28.5173023  27.2200808  72.0690508  28.0341667
  28.3740903  72.4241692  29.4021772  27.3273715  73.6803562  28.8787999
  32.5441111  74.3045937  30.1359894  32.0284880  75.3497601  30.5952929
  33.5456079  73.6979532  30.8061935  33.8722524  72.8277686  30.4112593
  34.0983817  74.1669092  32.1044152  33.3173546  74.4998428  32.7872431
  34.8003099  73.0040402  32.9096651  35.7164099  72.8187756  32.3488132
  35.0495634  73.6068698  34.3289956  34.1167810  74.0008386  34.7314327
  35.5061317  72.8318700  34.9443903  35.7565370  74.3944617  34.0708553
  33.9994069  71.7043540  33.0275137  33.2983406  71.7091387  33.8622150
  33.4585125  71.4297484  32.1221061  34.6602342  70.8569992  33.2111412
  35.0030744  75.3857227  31.9591201  35.0064592  76.3043333  32.7846140
  35.8257874  75.4585820  30.8805039  35.7325102  74.6636915  30.2653661
  36.7604292  76.5261923  30.5535315  37.3339793  76.6365224  31.4735035
  37.3788320  76.1994914  29.7172125  36.1470177  77.8473458  30.1133293
  36.8739860  78.8614980  30.2945074  34.8912702  77.9297916  29.6496140
  34.5598265  77.0668123  29.2437670  34.1811928  79.2282811  29.4038984
  34.9095941  80.0389562  29.4473340  33.3156462  79.0812149  28.1881030
  32.5432828  78.3248275  28.3263957  32.7498540  79.9899042  27.9849973
  34.0413446  78.7358440  26.8645099  34.7203007  77.9223609  27.1214180
  33.2003435  78.4340685  26.2411531  34.8465365  79.9652951  26.3982094
  34.1258523  80.7677031  26.2375152  35.4739114  80.2787235  27.2328647
  35.6161803  79.6553446  25.1648116  36.5121820  79.1910796  25.2092298
  35.1548142  79.5857679  23.9446082  33.9798782  80.1775238  23.6475506
  33.4491956  80.6412719  24.3707799  33.5168719  80.1202522  22.7521115
  35.7569848  78.9244190  23.0090457  36.5431255  78.3064473  23.1500236
  35.3487055  78.8857580  22.0851884  33.3031430  79.5055059  30.6033820
  32.5455392  80.4659313  30.7168529  33.2927313  78.6175587  31.5870803
  33.9349125  77.8401580  31.5228192  32.5000142  78.7742272  32.8843315
  32.9744200  78.4028463  33.7921004  32.3859956  79.8405153  33.0837569
  31.1415184  78.1070991  32.8672970  30.3830456  78.1772685  33.8658071
  30.7207799  77.5142588  31.7631175  31.4062176  77.3061147  31.0518248
  29.3278442  77.0451813  31.5026496  28.6230370  77.8694872  31.6110230
  29.2949667  76.6685262  30.0427414  29.9014196  75.7701141  29.9283930
  28.3139551  76.3121011  29.7255814  29.6863972  77.7708292  29.0528610
  29.5301128  79.1493435  29.2974906  29.1734781  79.4941436  30.2567808
  29.8129863  80.1420552  28.3205750  29.5985402  81.1729987  28.5643069
  30.1788915  79.7359177  27.0547856  30.3610191  80.7702010  26.1597238
  29.7873356  81.4445932  26.5323650  30.2552248  78.3863486  26.7094882
  30.5006136  78.1214626  25.6916824  29.9976313  77.4488020  27.7375383
  30.1240550  76.4431071  27.3666586  28.9480502  75.8971538  32.4464988
  27.8241221  75.8927332  32.9724798  29.8539764  74.9985910  32.7036538
  30.7126301  75.0902986  32.1804095  29.7160687  73.7926805  33.4869897
  28.6583899  73.7765913  33.7483335  29.9907242  72.5146384  32.6164227
  29.3805846  72.4937118  31.7132502  31.0739346  72.5932124  32.5223356
  29.6529904  71.1732404  33.3403815  30.2173921  71.0453878  34.2641404
  28.1848060  70.8558258  33.6291867  27.9068920  71.4585829  34.4939559
  27.5845110  70.9842786  32.7288225  28.0746715  69.8349273  33.9957527
  30.2337820  70.0942203  32.3766644  29.7367435  70.0586288  31.4076809
  31.3097541  70.2071992  32.2422919  30.1065666  69.1882972  32.9697737
  30.4985859  73.8976184  34.7147144  31.6669248  74.2331340  34.6121348
  29.8177035  73.4644151  35.7843138  28.8628028  73.1956703  35.5943874
  30.2894447  73.2235654  37.1267130  31.3447473  72.9530750  37.1336668
  30.2018633  74.5291320  37.9590743  30.6443207  74.2963232  38.9276302
  30.6674327  75.3914447  37.4811550  28.8749189  75.0159478  38.2415044
  28.6155927  75.5524107  37.4896191  29.5196629  72.0622096  37.8420499
  28.4794393  71.7325859  37.4018102  30.0542203  71.4631463  38.9249744
  31.2880443  71.7420147  39.6781674  31.1802207  72.5163451  40.4375333
  32.1829047  71.9578776  39.0952111  31.6716445  70.4237998  40.3421623
  32.2542369  70.5841076  41.2490783  32.1762805  69.8514539  39.5636332
  30.2970389  69.7101276  40.5093454  29.9894024  69.8138163  41.5504249
  30.4036149  68.6758537  40.1803026  29.4192833  70.2700279  39.4698062
  29.3877667  69.4715376  38.7288683  27.9259738  70.3824159  39.9251539
  27.5059560  71.4309061  40.3813626  27.2119531  69.2580799  39.8204406
  27.5692550  68.4721524  39.2969224  25.7185097  69.2461497  40.1924279
  25.2266226  70.1519762  39.8362280  25.0131657  68.0214582  39.5306495
  24.9269195  68.2534481  38.4693413  25.6800512  67.1890367  39.7568715
  23.6330808  67.7033922  40.1217710  23.1262163  68.5872661  40.8942742
  22.9626816  66.7632981  39.7071205  25.7253053  69.0621785  41.7127915
  25.9271757  67.8747147  42.2046371  25.5516010  70.1727726  42.4524729
  25.5824067  71.0835878  42.0186565  25.4272294  70.0935729  43.9321043
  26.3159467  69.5566217  44.2608685  25.5313180  71.5117247  44.5715196
  25.0097160  72.2432257  43.9554338  24.8569873  71.5744089  45.4260918
  26.9663632  71.7676892  45.0499592  27.2968851  70.8468970  45.5308479
  27.9262478  71.9766238  43.9324396  28.0725855  71.1019449  43.2980012
  27.5755727  72.8116814  43.3256286  28.9297003  72.2336903  44.2706777
  27.1178054  72.8704154  46.0208609  26.6831984  73.7537133  45.5529898
  26.6436081  72.5818737  46.9586262  28.1260134  72.9911607  46.4177669
  24.2024722  69.2752714  44.4843058  24.3124334  68.8837930  45.6516615
  23.1476839  68.9383461  43.6573795  23.1014663  69.2323485  42.6920565
  22.1155462  68.1099120  44.1936729  21.8646291  68.4902701  45.1834493
  20.8865907  68.1965627  43.2389530  19.9982890  67.8512709  43.7675850
  20.7777424  69.2774236  43.1400549  20.9637704  67.5758150  41.9531375
  21.6971030  67.9602727  41.4672561  22.5311483  66.6204932  44.3699239
  21.8323540  65.9437684  45.0860769  23.7040279  66.0764752  43.9755209
  24.2813460  66.6280219  43.3579782  23.9224429  64.6339586  44.1193775
  22.9862262  64.1319931  43.8726266  24.8837459  64.2390963  43.0715887
  25.8711256  64.6219419  43.3259442  24.9344187  63.1575806  43.1963168
  24.4857788  64.5938223  41.5956396  23.4052864  64.5955333  41.4537481
  24.9280154  65.5821294  41.4676675  25.1262536  63.5976761  40.6343370
  26.2044099  63.6895745  40.7661390  24.8369319  62.5745973  40.8779551
  24.8292599  63.9584522  39.1253306  25.4866449  64.7594857  38.7850362
  25.0919319  63.1320573  38.4649308  23.4166754  64.1061529  38.7877738
  22.9529508  64.8500556  39.2882679  23.1784487  64.1190837  37.8055606
  22.9256589  63.2856162  39.1118776  24.2956748  64.1293465  45.5381398
  24.4617706  62.9070617  45.7553426  24.3911090  65.1013744  46.4983612
  24.2014480  66.0678774  46.2720834  24.6961583  64.8023765  47.8928138
  25.6312943  64.2486735  47.8090121  24.7857445  66.0880390  48.7771990
  24.9539318  65.7847430  49.8107204  26.0085189  66.9578952  48.3557919
  25.7859978  67.3260934  47.3546209  26.1463387  67.7845553  49.0523892
  26.8589849  66.2752725  48.3736500  23.5126595  66.9824467  48.6233987
  23.5264754  67.7758853  49.3714190  23.3210887  67.4113081  47.6402016
  22.6904456  66.3104334  48.8713771  23.8192995  63.7696108  48.5865845
  22.6216384  63.7141071  48.3877897  24.4095130  62.9599339  49.4378361
  25.3978995  63.0903758  49.5992488  23.7938159  62.0473418  50.4330365
  23.3535672  61.1334210  50.0327978  24.9034582  61.5504237  51.3436310
  25.3868360  62.3910398  51.8420139  24.4557595  60.9625462  52.1445610
  25.9316607  60.6792701  50.6567424  25.5549339  59.7884481  50.1540078
  26.3007225  61.2789967  49.8248799  27.0753926  60.3615327  51.5888821
  27.2075899  61.1755600  52.3030805  26.8720738  59.5602618  52.2992654
  28.3387815  60.1624976  50.8913160  28.9886462  60.9154758  51.0668201
  28.6877685  59.1664685  50.1202049  27.9201508  58.1433208  49.8129447
  27.0917911  57.9563007  50.3605774  28.2319948  57.3941269  49.2119008
  29.8358222  59.1158875  49.6051221  30.5410027  59.8212688  49.7661801
  30.1601449  58.3833926  48.9897108  22.7901669  62.7650030  51.2819040
  23.1195742  63.7640325  51.9199087  21.6355815  62.0388812  51.4806641
  21.5085668  61.1887788  50.9505112  20.5506519  62.6246499  52.3210567
  20.2637173  63.5247124  51.7766036  19.3431936  61.7524293  52.4773245
  18.5370357  62.2876725  52.9794502  19.0936994  61.5102336  51.4436766
  19.7377542  60.7136317  53.3075837  19.8462174  59.9324070  52.7599372
  20.9713803  63.1916029  53.6795330  20.4220266  64.2285078  54.0534434
  21.9757899  62.6176235  54.3726887  22.4047246  61.7721711  54.0238632
  22.4128977  63.0938690  55.7028831  21.5444392  63.5635177  56.1629135
  22.8298948  61.9234128  56.6631870  22.2089362  61.0278856  56.6220341
  23.8063237  61.5621577  56.3410667  22.8492396  62.3466919  58.1809836
  22.3115946  63.2879139  58.6513134  23.5241691  61.5490743  58.9512552
  23.3590502  61.5355330  59.9473583  23.9477343  60.6948310  58.6177557
  23.4749045  64.2162930  55.6127453  23.8726603  64.7864128  56.6575398
  23.8701181  64.7782548  54.4176088  23.6656620  64.2195567  53.6017264
  24.7507373  65.8578489  54.1962913  25.7375381  65.6252878  54.5954922
  24.8285624  66.1365752  52.6572244  25.0585752  65.1961203  52.1566141
  23.8977989  66.4888328  52.2132064  25.9847577  67.5320951  52.1578823
  25.2188545  68.4939561  52.6798761  24.3130849  67.1339690  54.9813110
  23.2139359  67.6542330  54.7495315  25.0941431  67.6205613  55.9505385
  26.2072488  67.1140547  56.6308266  27.1398258  67.5136639  56.2322497
  26.3052392  66.0365139  56.5064377  26.1208899  67.5911114  58.0632902
  27.0270149  67.5033851  58.6629364  25.3535902  67.0086796  58.5732640
  25.7215206  69.0584607  57.8788277  26.5725782  69.6617274  57.5636782
  25.2548181  69.4871345  58.7653216  24.7576911  68.8844487  56.6294552
  23.7880715  68.7351200  57.1063490  24.6793866  70.1043339  55.7393015
  25.6607823  70.3847279  55.0525311  23.5912207  70.9119680  55.9105093
  22.9513196  70.6914177  56.6598351  23.4470314  72.1595894  55.0756901
  23.1313034  71.8780670  54.0711195  22.2846566  73.0276336  55.6149368
  22.3653617  73.0592947  56.7006464  22.2452804  74.0252489  55.1774803
  20.8903947  72.2961655  55.2892356  20.6329843  72.4452088  54.2402437
  20.9763492  71.2325044  55.5078168  19.7180719  72.8341891  56.1315870
  19.7884086  72.3245531  57.0914875  19.7802194  73.9096991  56.2993663
  18.4250394  72.3934703  55.5055153  18.4102677  72.6212937  54.4398454
  18.4053103  71.3034858  55.4867969  17.2409733  73.0582203  56.1948584
  16.3811119  72.6425958  55.8650467  17.2979113  72.9268492  57.1942566
  17.1911579  74.0570451  56.0501433  24.6943207  73.0326773  55.0017979
  25.0729077  73.5100248  53.9353237  25.3280626  73.3593754  56.1356059
  24.9458148  73.1344347  57.0424324  26.5179067  74.1713241  56.1533927
  26.2373582  75.1680572  55.8124563  27.0098674  74.3807663  57.5868157
  26.2446114  74.9786671  58.0823800  27.1004271  73.4314651  58.1150687
  27.9944276  74.8429711  57.5203782  27.6700797  73.5098743  55.3447603
  28.3303604  74.1923502  54.5830483  27.8766025  72.2360079  55.3747412
  27.2480956  71.6657310  55.9224349  28.9418749  71.5463011  54.6581729
  29.8784760  72.0365091  54.9229131  28.9800481  70.0783068  55.2347705
  29.0737333  70.1045723  56.3198448  28.0529611  69.5585571  54.9950457
  30.0786534  69.1889730  54.6973139  29.9429367  68.2117559  55.1602930
  29.9480218  69.0631289  53.6228249  31.7664397  69.7797088  54.8865752
  32.6298192  68.1938287  54.5365567  32.4003750  67.8280998  53.5356432
  33.7090248  68.3435856  54.5525602  32.3758486  67.4545425  55.2958715
  28.8282566  71.5598278  53.0860060  29.8603761  71.5466487  52.3794385
  27.5670603  71.5917137  52.6145441  26.8914058  71.5908090  53.3651034
  27.1660193  71.8840170  51.1620677  27.7705970  71.3819766  50.4070072
  25.6577169  71.4812985  50.9322596  25.5136400  70.5969692  51.5546844
  25.0230154  72.2530253  51.3675408  25.3518329  71.1982613  49.4207455
  25.4525158  72.1226233  48.8514275  25.9991307  70.3830759  49.0972082
  23.9385935  70.5263055  49.3446362  23.6728824  70.2385555  48.3272000
  23.9847425  69.6850945  50.0355366  22.9089939  71.5357450  49.9035831
  23.1349726  71.6222283  50.9670417  23.1873181  72.4915369  49.4589636
  21.5266744  71.1835331  49.6403328  21.4515341  70.2761171  50.0775961
  20.9671646  71.8577699  50.1417571  21.3425492  71.0425757  48.6574463
  27.4786216  73.3979450  50.8629240  27.8834908  73.7071596  49.6710480
  27.3079092  74.2694633  51.8919405  26.9453536  73.9543934  52.7797420
  27.6899157  75.7028043  51.7387071  27.2559779  76.0933079  50.8185017
  27.0881176  76.4834680  52.8837090  26.1038275  76.0440356  53.0440153
  27.7879859  76.4046891  53.7155192  26.9040592  77.9930634  52.6108017
  27.8123144  78.4162426  52.1825112  26.0998734  78.1742908  51.8973181
  26.7294189  78.6961983  53.9334790  26.6717250  79.7699920  53.7544916
  25.8385280  78.2353948  54.3608225  27.8928929  78.4684132  54.8544460
  28.7762357  78.4706279  54.3647944  27.7653673  78.3821408  56.1644247
  26.6640009  78.5745082  56.8274328  25.8409075  78.7194912  56.2589866
  26.6980769  78.6717862  57.8323949  28.7893683  78.1654235  56.8538516
  29.6190868  77.9834943  56.3083656  28.8469208  78.0845672  57.8586242
  29.2079216  75.9206758  51.5062399  29.4991769  76.5129692  50.4448258
  30.0695907  75.3519638  52.3612024  29.7483802  74.8700535  53.1889967
  31.5198303  75.2344482  52.3082186  31.8869236  76.2350761  52.5346638
  31.9817419  74.3901640  53.5535603  31.5232624  74.7127270  54.4877078
  31.7561035  73.3299134  53.4417172  33.4638790  74.4928206  53.7572490
  34.0194990  73.9961766  52.9619018  34.0559232  75.9025479  53.8538646
  33.3619670  76.5845077  54.3445872  34.9829362  75.8391804  54.4231243
  34.3682066  76.2758232  52.8785484  33.8947358  73.7383227  55.0127403
  33.4289951  74.2337329  55.8652292  33.4993493  72.7243921  54.9681509
  34.9836033  73.7396017  55.0595165  31.9551944  74.6270373  50.9599282
  32.8832865  75.1309426  50.3079777  31.3369448  73.5112458  50.6033799
  30.7176666  72.9985343  51.2159045  31.5867295  72.9014290  49.2804962
  32.6321569  72.6017438  49.2124357  30.7890998  71.5729162  49.1654193
  31.2729231  70.8164605  49.7835130  29.7797172  71.6539676  49.5680437
  30.6133586  71.1217038  47.6911872  29.8656144  71.7961254  47.2744320
  31.5298773  71.2523993  47.1171436  30.1809373  69.3826280  47.2970281
  28.5425673  69.4648632  48.1046530  28.0563565  70.3436042  47.6804887
  28.0162003  68.5794422  47.7491177  28.6827954  69.2940588  49.1715550
  31.3367519  73.9310443  48.0807110  32.2720981  74.1865256  47.2816962
  30.2291437  74.6977751  48.0242043  29.4617341  74.5243054  48.6568809
  30.0124094  75.6724730  46.9516352  30.2877908  75.1791925  46.0182771
  28.5687998  76.0760233  46.9679562  27.8953470  75.2675236  47.2542961
  28.3452476  76.9198600  47.6199639  28.3487446  76.3762471  45.9428184
  31.0502257  76.8360594  46.9652397  31.5373654  77.2538454  45.9324514
  31.4849004  77.3361509  48.1376353  30.9693900  77.1496716  48.9873409
  32.5230100  78.3483544  48.2639747  32.2486724  79.2160657  47.6645333
  32.6816598  78.8177729  49.6782616  32.9526656  78.0145207  50.3642068
  33.5068950  79.5275217  49.6358772  31.5127177  79.4744185  50.4558180
  30.7582435  78.6914795  50.5240108  31.8549099  79.6103943  51.4821562
  30.8745951  80.7799930  49.9153529  31.6267961  81.6361681  49.4132334
  29.6745717  80.9212413  49.7602054  33.8518111  77.9137676  47.6057871
  34.4780350  78.6798318  46.8785882  34.2715676  76.6719804  47.9501314
  33.7933829  76.2134755  48.7120826  35.4758100  76.1029613  47.4282085
  36.2413471  76.8724290  47.5257448  35.8462038  74.7938397  48.2142194
  34.9519331  74.1732458  48.1603669  36.7490037  74.3381254  47.8070330
  36.1696059  75.1120965  50.0552812  34.9126933  75.2576374  50.4847757
  35.4091136  75.7651569  45.8965235  36.5079725  75.8442436  45.3118695
  34.2190034  75.6138747  45.2739783  33.4111884  75.8803722  45.8179011
  34.1128064  75.2915785  43.7904617  35.0598371  74.8762534  43.4449711
  32.9674939  74.2546060  43.6297127  32.1555928  74.7547755  44.1581225
  32.8001917  74.0903200  42.5653476  33.3636640  72.8874363  44.0911207
  33.6911865  72.9783217  45.1267142  32.1013306  72.0496365  44.1482073
  32.2447325  71.0244863  44.4909565  31.4232167  72.5203739  44.8598102
  31.4802494  72.0595788  43.2519912  34.4550157  72.2410711  43.1772447
  35.4068210  72.7665091  43.2535050  34.5373879  71.1535810  43.1881595
  34.2046511  72.3807054  42.1254549  33.8226247  76.5958981  42.9384512
  33.6551601  76.3978295  41.7106489  33.8710667  77.7931716  43.5125195
  34.0589989  77.9270682  44.4962131  33.6489154  78.9573855  42.7171857
  32.7106456  78.8880888  42.1679128  33.5207158  80.2560398  43.6063217
  34.2950423  80.1754252  44.3694690  33.6606257  81.1304706  42.9702346
  32.1435738  80.4381399  44.2784627  31.4275472  80.8719834  43.5811667
  31.7408158  79.4851901  44.6199795  32.1237678  81.3017949  45.5738332
  32.7682288  80.8361538  46.3193608  32.6826221  82.2125012  45.3567970
  30.6825943  81.4364848  46.0093453  30.0508107  81.5875396  45.1330977
  30.1941409  80.5372471  46.3836843  30.4586095  82.5145132  46.9899714
  29.5049289  82.6811709  47.2778663  30.9156903  82.3068022  47.8662763
  30.8371217  83.3722350  46.6124162  34.7498800  79.1895972  41.5975230
  35.8780338  78.7460735  41.7071809  34.3303175  79.8952989  40.5606578
  33.4156864  80.3190945  40.6304375  35.0528451  80.0124521  39.3224078
  35.3964604  78.9954376  39.1376616  34.2592226  80.4932464  38.1331458
  33.9799761  81.5193788  38.3703374  34.9265400  80.4174488  37.2749890
  33.0107749  79.6563879  37.7749164  33.3172488  78.7620284  37.2314234
  32.4251937  79.3711541  38.6487387  32.0007914  80.1980580  36.9369123
  31.7484983  81.1901427  37.3103693  32.4188760  80.4615738  35.9655902
  30.7271113  79.3416335  36.7582142  31.0265691  78.6082267  36.0092706
  30.4311357  78.8093625  37.6620085  29.5212394  80.1009580  36.2554269
  29.3376049  80.8477080  36.9105572  29.6713609  80.4666568  35.3257630
  28.6871419  79.5444265  36.3753478  36.3587591  80.8036997  39.4429772
  37.2936023  80.5468842  38.6323971  36.4040863  81.8255249  40.3243600
  35.5236067  82.0437147  40.7698337  37.5636439  82.7490005  40.5438161
  38.0801986  82.5509577  39.6048713  36.9500982  84.2059125  40.4023020
  36.2624187  84.3338508  41.2389941  37.7796031  84.9063769  40.4976768
  36.2383424  84.4544937  39.0392330  36.9375780  84.1031653  38.2802028
  35.2780283  83.9386002  39.0370437  36.0473586  85.9984604  38.6697564
  36.9635818  86.5893487  38.6389645  35.5807156  85.8891298  37.6903969
  35.1975613  86.7088545  39.6685135  35.7185072  86.6897938  40.6252256
  35.1424892  87.7740194  39.4400825  33.8328182  86.1157154  39.8697921
  33.9403649  85.1115723  39.8493140  33.4919343  86.1615312  40.8191146
  33.1599300  86.3989583  39.1717599  38.5087043  82.4813896  41.7116908
  38.0151784  82.5264083  42.8325759  39.8027601  82.2213016  41.4603545
  40.0648677  82.0573656  40.4997200  40.8519983  81.8395196  42.4303126
  40.5007564  80.9331961  42.9231075  42.1187176  81.5226623  41.6712904
  42.8975248  81.2083985  42.3665189  41.9839730  80.6608277  41.0167325
  42.8496254  82.6848737  40.9398887  42.1202582  83.3129112  40.4283875
  43.2282913  83.4674131  41.5975560  43.8193290  82.0630266  39.9185063
  44.5468330  81.4908566  40.4951331  43.3124770  81.2904058  39.3389347
  44.3788491  83.0494789  38.9820070  45.3397827  83.3316818  39.1100586
  43.9162648  83.4496502  37.8367062  42.6709745  83.2544394  37.4766899
  42.0374841  82.8749579  38.1658095  42.3927923  83.5770656  36.5611578
  44.7087144  84.0002721  37.0041714  45.6897834  84.0171670  37.2437860
  44.3098899  84.5986034  36.2955356  40.9671050  82.9263085  43.5434421
  41.0772042  82.5430100  44.6850670  40.9228763  84.2173667  43.1684654
  40.8484398  84.5030361  42.2026351  41.0062207  85.2239082  44.2559528
  41.8973248  85.0893903  44.8689752  41.1459352  86.6042988  43.6127399
  40.3766969  86.8463028  42.8783072  41.0834528  87.3638186  44.3916972
  42.4337812  86.8139962  42.8617647  43.4363958  86.3923220  43.3706113
  42.4557464  87.2843166  41.7085985  39.7253529  85.2877746  45.1320963
  39.6952799  85.7237817  46.2782091  38.5969041  84.8361130  44.5805728
  38.5663104  84.5086839  43.6260126  37.3261261  84.6928106  45.2706269
  37.0884720  85.5814415  45.8569337  36.1570734  84.5354599  44.3333711
  36.3588620  85.0151086  43.3750729  36.0048504  83.4745292  44.1406348
  34.8017748  85.0394975  44.8456804  34.2831282  84.2223890  45.3474407
  34.8625000  85.8371067  45.5848624  33.8535711  85.6373194  43.8060821
  32.7521021  85.9761803  44.2742758  34.1147708  85.7040839  42.5659364
  37.2980874  83.5622238  46.2628292  36.7330876  83.7925609  47.3968513
  37.8409610  82.3996399  45.9660666  38.1857127  82.1889280  45.0402455
  37.7835806  81.1899149  46.8231237  36.7341314  80.9425773  46.9814606
  38.3785922  79.9229312  46.0683957  39.4371286  80.1300352  45.9116969
  38.3915602  79.1101340  46.7939180  37.7200213  79.3650627  44.7788066
  36.6713887  79.1555022  44.9887208  37.8460056  80.1573495  44.0411349
  38.1740976  78.1137813  44.1782138  38.2298302  77.4214559  45.0187479
  37.4199661  77.6494632  43.5432135  39.4322468  78.2641805  43.4846740
  40.1650724  77.6772661  43.8576583  39.5436250  78.5422101  42.2136495
  38.5750260  78.7552726  41.3114709  37.5940575  78.7326931  41.5519247
  38.7701024  78.9870647  40.3488060  40.7479931  78.4027775  41.7385178
  41.5297875  78.2393481  42.3564930  40.7869487  78.7150718  40.7792718
  38.4851790  81.4476259  48.1521477  39.3612572  82.2696091  48.1827527
  38.1275540  80.7781771  49.2604990  37.0686831  79.7389708  49.4493181
  37.1132208  78.8675687  48.7959049  36.0842648  80.1927485  49.3386765
  37.2313552  79.1649092  50.9005662  37.8422812  78.2646466  50.8319405
  36.2496815  78.9496679  51.3210753  37.8517688  80.2949441  51.6242554
  38.3544154  79.8553379  52.4858857  37.0173116  80.9129173  51.9552557
  38.7833784  80.9568653  50.5898841  38.9116305  81.9962467  50.8930107
  40.2334584  80.2752614  50.5724149  40.7166415  79.9757122  49.4926305
  40.8378327  79.9793898  51.7408283  40.3592845  80.4241405  52.5116191
  42.2118798  79.3937141  51.9287630  42.6769893  79.0457236  51.0060384
  43.0584579  80.4428642  52.5990358  42.4550571  80.7445413  53.4554233
  44.0069753  80.0020989  52.9061151  43.3499012  81.6007861  51.5934999
  42.4281536  81.7640317  51.0343726  43.9230379  82.8635212  52.2626221
  43.2917533  83.2171264  53.0778883  44.8702737  82.4952979  52.6577753
  43.9936052  83.6697677  51.5318117  44.3159782  81.1675890  50.4604079
  44.0514698  80.2018999  50.0309734  44.2501281  81.9020410  49.6582402
  45.3869252  81.2124208  50.6604943  42.1759030  78.1457564  52.8757209
  41.1622570  78.0575257  53.6152850  43.1402893  77.2130832  52.8461776
  43.8360789  77.3074410  52.1194112  43.0312277  76.0194592  53.7273141
  42.0842614  75.5379521  53.4822679  44.1134759  75.0144424  53.3328955
  45.0387206  75.5799503  53.2171716  44.2243833  74.2330838  54.0845992
  43.8024439  74.2483217  52.0476375  42.8853118  73.1977391  52.0730134
  42.3685943  72.9589394  52.9898316  42.5133830  72.4331472  50.9409227
  42.0182003  71.4769666  51.0223160  43.0971241  72.8145025  49.6727475
  42.9391437  72.2280257  48.7799602  43.9526241  73.8998413  49.6622878
  44.4182818  74.1696734  48.7262629  44.3048029  74.6482989  50.7860343
  45.0417034  75.4371710  50.7522793  42.9363690  76.2898683  55.2678772
  42.0213404  75.7746243  55.8643319  43.6746641  77.2870211  55.8453326
  44.8800367  77.9608384  55.2852211  44.5860336  78.7798233  54.6285607
  45.5961549  77.2904062  54.8093970  45.5496311  78.3932971  56.6200746
  46.2058986  79.2166871  56.3393867  46.0935747  77.6264623  57.1710652
  44.3347572  78.8491472  57.4200240  43.9383539  79.7740912  57.0012352
  44.5815169  79.0152984  58.4691238  43.2936479  77.7442560  57.2168278
  43.4554581  76.8896263  57.8741956  41.8669166  78.2467609  57.4443265
  41.2668492  77.9450872  58.4892098  41.2212831  78.9898425  56.5395055
  41.7135054  79.2876178  55.7090055  39.8083259  79.3089752  56.5784337
  39.5707220  79.7738474  57.5348317  39.5372270  80.2755441  55.4148844
  40.0405452  79.8832530  54.5314861  38.4655318  80.3532344  55.2308531
  40.1585845  81.6566865  55.6968123  39.5336631  82.1226589  56.4590301
  41.1396979  81.4565376  56.1263794  40.1996243  82.6303505  54.5069938
  39.8131770  82.3221999  53.3713518  40.7940058  83.8040941  54.6282107
  40.8884483  84.3372186  53.7755303  41.2757177  83.9883164  55.4966011
  38.8339933  78.1194542  56.4498543  37.7945480  78.0506487  57.0734225
  39.2236692  77.1331991  55.6479069  40.0300093  77.4271401  55.1148701
  38.4615218  75.9003796  55.3836563  37.4185244  76.0906866  55.1301418
  39.0920024  75.2169448  54.1783481  40.1770758  75.3060343  54.2455183
  38.8488297  73.6893978  54.1448613  39.3427996  73.1751254  54.9691062
  37.7781370  73.4919266  54.1098874  39.2918921  73.2691790  53.2418852
  38.7133230  75.9532886  52.8004233  37.6479992  75.8144285  52.6197548
  38.8104878  77.0270102  52.9558904  39.4381760  75.5313222  51.6111187
  40.4706593  75.3232136  51.8923019  38.9429108  74.6556413  51.1928553
  39.3220791  76.3465826  50.8967477  38.5607270  74.9651895  56.5731658
  37.5034844  74.5216920  57.0420015  39.7660834  74.7710909  57.1539297
  40.5950765  75.3048048  56.9377679  39.9828555  73.7890637  58.2501690
  39.6860353  72.7587277  58.0543362  41.5427634  73.8436425  58.5386766
  41.9956151  73.3422935  57.6826372  41.9125029  74.8658093  58.6189368
  42.0733052  73.0896385  59.7111459  41.9481621  73.6488362  60.6389041
  41.5167885  71.7019560  59.8368023  40.4370656  71.5734914  59.7679086
  41.8245216  71.1633530  58.9403932  41.8896047  71.3036589  60.7801249
  43.6287092  73.0066538  59.6042172  44.0327957  74.0152145  59.5211489
  43.9829031  72.4991123  60.4998858  43.8309429  72.4321432  58.7004914
  39.2457441  74.2091098  59.5201398  38.5923503  73.3677820  60.1110663
  39.0760356  75.5045130  59.7477591  39.5005895  76.1445260  59.0920744
  38.2733401  76.0219940  60.8004786  38.4794343  75.3290155  61.6161936
  38.8272503  77.4150210  61.1538741  39.9150614  77.3749405  61.0990419
  38.4404834  78.1593418  60.4575130  38.4234181  77.5991786  62.1495977
  36.7666098  76.0720514  60.5917293  36.0008935  75.9183967  61.5991452
  36.2055257  76.3032522  59.4041938  36.8067079  76.4949278  58.6158668
  34.7952699  76.0392089  59.0317882  34.1812847  76.5275456  59.7881548
  34.5176533  76.6157657  57.6018594  34.9243157  77.6168329  57.4571940
  34.9650652  76.0081668  56.8145760  33.1305031  76.5488649  57.3856010
  32.7961350  77.3606266  57.7742021  34.4542658  74.5210108  59.1772696
  33.4488929  74.2894076  59.8365163  35.3971308  73.5735244  58.8495562
  36.2327183  73.8326060  58.3444193  35.2806310  72.0925404  59.2032850
  34.2926815  71.7556418  58.8901968  36.2863859  71.2074120  58.4393133
  37.3009915  71.5745482  58.5963242  36.3308643  69.7928201  58.8958091
  36.8252613  69.1510839  58.1668699  36.7864515  69.7386206  59.8843726
  35.3198589  69.3970172  58.9975940  35.7111114  71.2472715  56.9420276
  34.8090119  70.6412137  56.8503147  35.4340775  72.2675584  56.6790582
  36.7651045  70.9120832  55.8787283  37.0687241  69.8718737  55.9993660
  36.2782740  71.0428951  54.9123318  37.5677527  71.6363468  56.0165803
  35.3305843  71.9545732  60.7094343  34.5755758  71.1200889  61.1494117
  36.1322489  72.6795288  61.4997559  36.8493119  73.2272385  61.0468754
  36.1983738  72.4368129  62.9635590  36.2181633  71.3567932  63.1119932
  37.4116121  73.1328671  63.6251371  37.4268155  74.1286548  63.1818733
  37.1469837  73.1433319  64.6823595  38.7097043  72.3196511  63.4098297
  38.8148526  72.0697191  62.3542086  39.4450865  73.1186634  63.5029165
  39.0602441  71.1634509  64.3771466  38.1642881  70.3575603  64.6616081
  40.2019909  71.1201985  64.8987646  34.9215462  72.9263020  63.6648568
  34.3924826  72.1918253  64.5458709  34.3989915  74.0732461  63.2755089
  34.8819066  74.5992340  62.5612304  33.0760440  74.5817814  63.6943988
  32.9715630  74.6261230  64.7782893  32.8704737  75.9756183  63.0442831
  33.7032716  76.6173876  63.3292496  32.8837905  75.8444854  61.9619274
  31.5900362  76.7245515  63.4044216  30.7627352  76.1493787  62.9872594
  31.3672938  76.8587341  64.9152170  32.2691432  77.2964259  65.3441046
  30.4555494  77.4535680  64.9796517  31.2235584  75.8979427  65.4085588
  31.5209527  78.1301394  62.7436159  31.6830351  78.0080238  61.6728134
  30.5558994  78.6218291  62.8609035  32.2715595  78.7689678  63.2096348
  31.9429151  73.5231530  63.4738201  31.1968265  73.2202746  64.4213107
  31.8539229  73.0333522  62.1919771  32.3773733  73.5128330  61.4731191
  30.9435975  71.9854507  61.7118824  29.9187494  72.2688370  61.9516253
  31.1351752  71.9605856  60.2178336  30.7783765  72.8710101  59.7367339
  32.2120906  71.9406966  60.0490778  30.5133742  70.7239519  59.6014420
  30.6905527  69.7954824  60.1437381  28.9906248  70.8343773  59.4735140
  28.6462806  69.8555389  59.1395853  28.5561268  71.0579160  60.4479364
  28.7354405  71.5845427  58.7242958  31.0848531  70.4522491  58.2286210
  31.0306988  71.3312731  57.5866194  32.1547843  70.3120822  58.3799174
  30.7637085  69.5390594  57.7277012  31.2016633  70.6313529  62.4595584
  30.2941622  69.9494066  62.8878655  32.4361754  70.2698559  62.7863742
  33.1950356  70.8681717  62.4948070  32.7847336  69.0178591  63.4800543
  32.2567847  68.1982525  62.9928529  34.2856592  68.7509526  63.4459192
  34.5430018  67.7589109  63.8159328  34.6324128  68.9378684  62.4296155
  34.8121823  69.3208077  64.2118485  32.2257436  68.9924717  64.9380484
  31.7275909  67.9350573  65.3967146  32.1181583  70.2030932  65.6140055
  32.6469787  70.9720912  65.2281713  31.5109132  70.3258789  66.9951025
  31.4059899  69.3197875  67.4021973  32.5334157  71.0847479  67.7925305
  32.8947109  72.0241814  67.3734692  31.9322759  71.4322632  68.6316336
  33.7104805  70.2650512  68.3800489  34.4280228  69.9067326  67.6420186
  34.2821326  70.9388217  69.0170365  33.3433205  69.0566936  69.3262786
  34.0306959  69.2069917  70.1593750  32.2955506  69.0085641  69.6198904
  33.5918409  67.8283263  68.6914114  34.2387106  67.8523248  67.9168705
  33.0236078  66.6740061  69.0181989  32.4935649  66.3569753  70.1398789
  32.6144875  67.0908340  70.8229346  32.1952829  65.3992222  70.2563386
  32.8600350  65.6930700  68.1329361  33.2491783  65.7839591  67.2053340
  32.5379483  64.7707863  68.3857638  30.0823311  70.7763504  66.9718941
  29.5651854  70.9313533  68.0376466  29.4803033  71.0799469  65.8141494
  30.0279267  71.0751470  64.9658737  28.1017451  71.5217990  65.8426064
  27.8185280  71.9258245  66.8151328  27.8621427  72.7436224  64.9632809
  28.0878725  72.3712555  63.9639787  26.8204244  73.0615587  64.9096116
  28.7440889  73.7056525  65.4244361  29.6324393  73.4958539  65.1267515
  27.0818521  70.4682064  65.4813712  25.9370152  70.8215139  65.4082743
  27.5440857  69.2579552  65.1900873  28.5346142  69.0988978  65.0773622
  26.6891566  68.3305801  64.4388199  25.7209347  68.7213624  64.1268993
  27.3755841  67.8461245  63.1194977  27.6278819  68.7711983  62.6007700
  28.3365888  67.4373164  63.4291858  26.6124572  66.8698364  62.3485867
  26.3401740  65.9432388  62.8528484  25.3785052  67.3875372  61.5990393
  24.9869059  66.6299079  60.9204622  24.6397026  67.6328522  62.3618926
  25.6362559  68.2470325  60.9789671  27.6153317  66.2903289  61.2722857
  28.1939919  67.0366423  60.7279764  28.3482855  65.7420697  61.8626447
  27.2108198  65.5997762  60.5314834  26.2557854  67.2111387  65.3564143
  27.1317673  66.4699083  65.7968065  25.0557733  67.1090017  65.7370519
  79.1657208  68.8404909  58.2741131  70.4395981  76.0198502  46.9965949
  71.3149965  22.4129393  80.5880063  17.9051536  77.7682417  47.4439279
  90.2164501  34.9170721  84.5622159  78.4943144  58.1849615  53.2071628
  28.9420494  89.9860090  34.1141872  74.4878195  75.1114046  41.5778080
  62.1695790  18.5135418  70.1723728  95.5687487  63.1266170  75.5010419
  55.0129878  93.4683355  38.3452620  52.8354092  53.2401335  28.3499473
  18.9021711  80.7791945  56.5893669  82.9007324  73.7110380  66.2550004
  42.2993829  74.0298527  77.5112808  79.3407085  28.3901951  79.4605564
  69.2547620  49.7879846 127.1187549  69.1761252  49.4539710 128.0123307
  70.0757287  50.2801614 127.1179021  69.2547622  26.7941969 113.8432855
  69.1761253  26.4601832 114.7368613  70.0757288  27.2863736 113.8424328
  75.6098627  40.5396016 116.8469351  74.9586606  41.1250097 116.4603365
  76.4042989  41.0702211 116.9064389  69.5354254  37.6285154 117.2456485
  70.3085130  37.0814141 117.1069361  69.8879653  38.4929403 117.4570947
  71.8720532  33.7877820 114.8774935  72.1246052  33.2659341 114.1158398
  70.9345091  33.6243965 114.9801619  77.0873892  38.2286448 117.3838335
  76.4519725  38.3021075 118.0959240  76.7571298  38.8180047 116.7057415
  71.5916820  35.6905926 117.0799310  71.4753078  35.0150829 117.7480395
  71.7019080  35.2038300 116.2631463  73.5753848  30.1805972 115.7807348
  73.7428250  31.0486209 116.1477819  73.3851017  30.3433254 114.8568637
  73.5543069  32.6363630 116.7654015  73.4342694  33.0820681 117.6039495
  72.8595657  32.9848948 116.2067553  71.3149961  45.4067272 120.4144146
  71.2373991  46.3575097 120.4932627  70.7111605  45.0613144 121.0719072
  79.2528135  33.1085103 117.5934349  80.1645991  33.3412490 117.4182046
  78.7437782  33.6922147 117.0309428  73.4125679  37.8285330 122.2498015
  73.8764025  38.1073033 121.4602638  73.1482477  36.9268774 122.0671106
  72.3494565  33.9508482 119.0587581  73.0518609  34.4029526 119.5261507
  72.0175194  33.3092301 119.6867474  73.5888330  40.7649425 119.1349686
  73.4534005  41.6100960 119.5634534  74.1298143  40.9668702 118.3715620
  67.0417727  38.2824863 119.7077611  67.5542248  39.0768113 119.8583176
  67.6940440  37.5851153 119.6411212  68.8512612  41.3990619 121.7900364
  69.0279240  42.3208584 121.6021348  69.6469446  41.0849038 122.2194744
  76.9031076  34.2788598 116.1721014  76.3877700  35.0493202 116.4109402
  76.6308385  33.6053734 116.7954076  81.8765350  37.0320952 118.1074188
  81.0994793  36.6932112 117.6629350  82.5556831  37.0373576 117.4329153
  76.6917379  32.1515690 117.9980796  76.3867515  32.4661839 118.8490939
  77.6447822  32.2297110 118.0408129  75.1363811  38.3105913 119.6473750
  74.6085173  37.5758673 119.3346987  74.6351314  39.0880589 119.4013718
  70.1952126  31.0030040 116.0276246  69.3589438  31.3404727 116.3485521
  70.0556896  30.8679020 115.0903383  73.2816412  36.1286123 112.6508723
  72.3743473  35.8975377 112.8499872  73.7787444  35.3323743 112.8382704
  76.1884490  44.8383631 115.5705409  75.5146189  45.1415327 116.1790367
  76.5750312  45.6412711 115.2210866  76.1877995  33.7340178 120.1905758
  76.9349814  34.2461575 119.8812880  76.4569584  33.4124230 121.0510152
  74.4604645  36.2298718 117.1732713  73.5515864  35.9457751 117.2705182
  74.4899729  36.6497797 116.3136020  79.6923912  39.8405308 120.9423880
  79.2386239  38.9996218 120.9989071  79.0617879  40.4766706 121.2798660
  78.1356852  41.6781804 121.8773698  78.4279826  42.2386862 121.1586064
  78.6455472  41.9710365 122.6326857  74.1580733  37.7707462 114.5120791
  73.7200163  37.0543321 114.0526429  74.8991174  37.9983577 113.9505883
  73.0990477  42.4562156 122.9667152  73.0566656  42.6823002 122.0375684
  74.0153176  42.2225530 123.1152953  71.2156278  39.3325185 122.7629114
  72.0096876  38.8375505 122.5611689  70.5047970  38.8043048 122.3996820
  74.3875706  45.0063303 117.7852488  74.5627461  44.5351346 118.5998111
  73.7008494  45.6329069 118.0133749  78.2791960  36.6291844 114.1052849
  77.6621131  35.9038672 114.0085902  77.8108449  37.3901204 113.7619923
  68.9536791  48.1552666 124.5592348  69.1933389  48.7871190 125.2371367
  68.1105987  47.8040706 124.8457707  70.0690506  30.8477268 113.2274153
  69.1919973  30.7266069 112.8636400  70.5448259  30.0563346 112.9753042
  73.2554432  43.2003558 120.4736674  72.4721954  43.7425238 120.5674898
  73.9547177  43.7177538 120.8730915  77.6480863  37.7669875 120.6909302
  76.7137142  37.8871337 120.5214007  77.8257532  36.8642342 120.4269312
  79.1029646  39.9531015 118.2245489  79.3789489  39.8387610 119.1339363
  78.2334144  39.5548500 118.1857662  75.7383710  44.2017366 121.8678302
  75.9206104  43.3839022 122.3306055  76.5616696  44.4185059 121.4303192
  76.0725875  43.1285551 119.1293351  76.6013642  42.6178006 118.5163513
  76.3354095  42.8128082 119.9938884  69.4281623  44.1800668 121.8891127
  68.7591998  44.6646796 121.4055167  69.2894493  44.4269889 122.8034505
  76.7055279  44.1626387 125.4737467  76.5806418  43.3616127 124.9648413
  77.3634370  44.6572581 124.9851437  75.7736621  41.7588123 123.3021369
  75.6261583  40.8304831 123.4828940  76.5990114  41.7808214 122.8178445
  79.3770742  42.5816682 124.3886242  80.3017290  42.3759544 124.2510693
  79.2086046  42.3333083 125.2975584  75.7698135  29.6125961 118.2953487
  75.9861749  30.4950599 117.9942315  75.2892202  29.2212175 117.5659129
  79.1666059  43.1002350 119.7448334  79.3402936  42.5348772 118.9922186
  79.6594950  43.9003245 119.5627824  80.1541231  42.4169114 116.8445232
  80.8492136  43.0375807 117.0632547  80.4964381  41.5664465 117.1197610
  82.0532654  39.8668820 118.3732563  82.5783978  40.2056092 117.6481883
  81.9655007  38.9315835 118.1895697  73.7373315  45.9340803 122.7327816
  73.2978305  45.4417182 123.4260673  74.4881432  45.3913771 122.4919891
  70.7460694  40.0282735 118.2808578  70.8948814  40.7118200 117.6275251
  71.5527138  40.0087825 118.7958034  74.2456100  42.5230866 115.7520326
  73.6730067  43.1421053 115.2990797  74.8188893  43.0730227 116.2860247
  77.4653359  42.8068016 116.8828908  78.3984033  42.7413578 117.0861783
  77.3776572  43.6424283 116.4243440  80.0941376  42.1233886 113.8432855
  80.0155008  41.7893750 114.7368613  80.9151043  42.6155654 113.8424328
  74.6302898  33.8591679 113.0936378  75.5762003  33.7297887 113.1624796
  74.2517143  33.1206340 113.5705806  72.8145815  31.7841655 113.0291263
  71.9077271  31.4874768 113.1053977  73.0921796  31.4871473 112.1625550
  71.5844600  28.6428590 113.1703242  72.4463764  28.9683488 113.4299060
  71.7694944  27.8560086 112.6576308  77.6645328  39.4401882 113.4642834
  78.3681178  39.6451884 114.0800489  76.9407977  40.0078644 113.7291917
  78.4943138  35.1911743 119.5845104  78.4378340  35.6480294 118.7452736
  79.0471481  34.4302427 119.4067947  69.6855491  45.1534275 124.6684701
  69.5687875  46.0979708 124.5663391  68.8647937  44.8507837 125.0570500
  79.5732025  39.8784411 115.5141294  80.4077629  39.4465609 115.3318769
  79.4116368  39.7066425 116.4418188  79.2277917  36.3816524 116.8797633
  79.1726721  36.2160796 115.9386077  78.6023973  37.0892557 117.0359823
  72.4663607  44.5593524 124.5450708  71.5159238  44.5595385 124.4315080
  72.7696093  43.8126258 124.0286743  80.8692822  52.2016966 121.5354886
  80.3057687  52.1106903 120.7671174  80.7545217  51.3816871 122.0157379
  86.4492381  55.8687934 116.8469351  85.7980361  56.4542015 116.4603365
  87.2436744  56.3994129 116.9064389  80.3748008  52.9577071 117.2456485
  81.1478884  52.4106058 117.1069361  80.7273407  53.8221321 117.4570947
  82.7114286  49.1169737 114.8774935  82.9639807  48.5951259 114.1158398
  81.7738845  48.9535883 114.9801619  87.9267646  53.5578366 117.3838335
  87.2913479  53.6312993 118.0959240  87.5965053  54.1471965 116.7057415
  82.4310575  51.0197843 117.0799310  82.3146833  50.3442747 117.7480395
  82.5412835  50.5330217 116.2631463  84.7742116  50.4807990 120.7846000
  84.4100323  49.9538611 121.4958921  85.6309232  50.0906460 120.6112485
  84.4147603  45.5097890 115.7807348  84.5822005  46.3778127 116.1477819
  84.2244772  45.6725172 114.8568637  84.3936824  47.9655548 116.7654015
  84.2736449  48.4112598 117.6039495  83.6989412  48.3140865 116.2067553
  90.0921890  48.4377021 117.5934349  91.0039746  48.6704408 117.4182046
  89.5831537  49.0214065 117.0309428  83.1888320  49.2800400 119.0587581
  83.8912363  49.7321443 119.5261507  82.8568948  48.6384219 119.6867474
  76.9313654  47.5383952 124.3604714  76.1412708  47.7941481 123.8844825
  77.4224901  48.3532290 124.4656755  78.8828399  47.9028532 121.3188191
  78.0859563  48.0147226 121.8371687  78.6553991  48.2415184 120.4529081
  77.8811482  53.6116780 119.7077611  78.3936002  54.4060031 119.8583176
  78.5334195  52.9143071 119.6411212  75.8460399  51.9405435 120.4837181
  76.6835621  52.3502443 120.2670889  76.0238666  51.0004877 120.4537375
  87.7424831  49.6080515 116.1721014  87.2271454  50.3785120 116.4109402
  87.4702139  48.9345652 116.7954076  85.3271942  44.4530216 121.2306253
  84.4713538  44.0637067 121.0511891  85.7398894  44.5322177 120.3706038
  87.5311134  47.4807607 117.9980796  87.2261270  47.7953757 118.8490939
  88.4841576  47.5589027 118.0408129  85.9757566  53.6397831 119.6473750
  85.4478927  52.9050590 119.3346987  85.4745069  54.4172507 119.4013718
  80.7076293  44.3017497 122.0080361  81.2820045  44.0792679 121.2753554
  81.2947276  44.3706192 122.7608962  81.0345881  46.3321958 116.0276246
  80.1983193  46.6696645 116.3485521  80.8950650  46.1970938 115.0903383
  83.0098961  41.1758746 120.7355431  82.3563373  40.8607763 120.1112045
  82.9679435  40.5534486 121.4615253  84.1210166  51.4578041 112.6508723
  83.2137228  51.2267295 112.8499872  84.6181198  50.6615660 112.8382704
  87.0271749  49.0632095 120.1905758  87.7743568  49.5753492 119.8812880
  87.2963339  48.7416148 121.0510152  85.2998399  51.5590636 117.1732713
  84.3909619  51.2749669 117.2705182  85.3293483  51.9789714 116.3136020
  75.8686570  49.2796150 121.1547915  75.6710970  48.6865511 120.4298981
  75.3133234  48.9748360 121.8723854  84.9974487  53.0999380 114.5120791
  84.5593917  52.3835239 114.0526429  85.7384928  53.3275494 113.9505883
  81.7875653  47.7896316 121.0332887  80.9743519  48.0890487 121.4398079
  82.2834648  47.3952005 121.7507369  78.3632796  48.8060184 118.8388867
  77.4330384  48.7444639 119.0558829  78.4590268  48.2836137 118.0425508
  78.2818345  45.3314997 121.4267109  78.5425162  46.2460330 121.3176269
  79.1035517  44.8639439 121.5763721  89.1185715  51.9583761 114.1052849
  88.5014886  51.2330589 114.0085902  88.6502203  52.7193122 113.7619923
  80.9084261  46.1769186 113.2274153  80.0313727  46.0557986 112.8636400
  81.3842014  45.3855264 112.9753042  72.4286401  50.9646345 123.3215660
  73.1157441  50.6508075 122.7336676  72.2734530  51.8687710 123.0482912
  77.2321123  45.8536542 127.7500684  77.1479312  45.2462211 127.0151094
  76.4103829  46.3445560 127.7510180  83.9879806  46.4807488 122.8442564
  83.6177593  45.9278529 123.5323469  84.4838898  45.8765622 122.2917564
  72.0054377  49.0446939 125.5933127  72.0438477  48.5110529 126.3870246
  71.4994670  48.5182144 124.9744105  75.6362955  47.7711041 118.6687059
  75.9316396  46.8621719 118.6154112  74.7350990  47.7498780 118.3468061
  79.1657202  45.8467037 124.6514607  78.4443787  46.4603005 124.5122081
  79.9550457  46.3824802 124.5731253  77.3650796  45.4525138 118.7926384
  77.0363502  44.5722517 118.6101490  77.7190167  45.3972807 119.6802773
  80.4792619  45.7398108 119.1601862  80.8188692  46.2684029 118.4380470
  80.9264740  46.0778514 119.9360428  82.4660767  44.2372730 117.3595154
  83.1869129  44.6153983 116.8558871  81.8426071  44.9561607 117.4630132
  86.6091889  44.9417879 118.2953487  86.8255504  45.8242517 117.9942315
  86.1285957  44.5504092 117.5659129  82.6124390  43.7720520 120.1892691
  82.7340301  42.8437166 120.3883579  82.3226432  43.7859206 119.2771006
  81.5854449  55.3574653 118.2808578  81.7342569  56.0410117 117.6275251
  82.3920892  55.3379743 118.7958034  79.3407082  51.3839831 119.2869647
  79.0953123  50.4802161 119.4849857  79.5102996  51.3856981 118.3449125
  78.6102729  47.1168188 116.7855809  77.9171974  47.1912543 116.1295844
  78.3654481  46.3528532 117.3077325  85.0849854  57.8522783 115.7520326
  84.5123821  58.4712971 115.2990797  85.6582648  58.4022145 116.2860247
  90.9335131  57.4525804 113.8432855  90.8548762  57.1185668 114.7368613
  91.7544797  57.9447572 113.8424328  85.4696653  49.1883596 113.0936378
  86.4155757  49.0589804 113.1624796  85.0910898  48.4498258 113.5705806
  83.6539570  47.1133573 113.0291263  82.7471025  46.8166685 113.1053977
  83.9315551  46.8163391 112.1625550  74.5717510  48.4339936 123.4790310
  74.2520294  47.5805244 123.1864684  74.0250938  48.6488514 124.2348277
  85.2701635  41.6570462 119.1835505  84.4602364  41.3117547 119.5590751
  85.9586052  41.3478006 119.7723116  82.4238354  43.9720508 113.1703242
  83.2857518  44.2975406 113.4299060  82.6088699  43.1852004 112.6576308
  74.4405770  52.0542847 125.4483431  73.7469242  51.6396800 124.9353386
  75.1878761  52.0963384 124.8516850  76.3542513  51.9861101 123.3249446
  76.3313201  52.0848789 122.3731329  76.6643149  52.8326252 123.6466612
  88.5039082  54.7693799 113.4642834  89.2074932  54.9743802 114.0800489
  87.7801731  55.3370561 113.7291917  89.3336893  50.5203661 119.5845104
  89.2772094  50.9772212 118.7452736  89.8865235  49.7594345 119.4067947
  90.4125780  55.2076329 115.5141294  91.2471384  54.7757527 115.3318769
  90.2510123  55.0358342 116.4418188  90.0671672  51.7108442 116.8797633
  90.0120476  51.5452713 115.9386077  89.4417727  52.4184475 117.0359823
  83.3767797  41.2116551 116.4582951  83.3646467  42.1558391 116.6151222
  84.2691219  41.0286696 116.1642413  69.2547623   3.8004091 100.5678162
  69.1761254   3.4663955 101.4613920  70.0757290   4.2925859 100.5669634
  75.6098628  17.5458139 103.5714658  74.9586608  18.1312219 103.1848671
  76.4042991  18.0764334 103.6309695  69.5354255  14.6347276 103.9701792
  70.3085131  14.0876263 103.8314668  69.8879654  15.4991526 104.1816253
  71.8720533  10.7939942 101.6020242  72.1246053  10.2721464 100.8403705
  70.9345092  10.6306088 101.7046926  77.0873893  15.2348571 104.1083642
  76.4519726  15.3083198 104.8204547  76.7571299  15.8242170 103.4302721
  71.5916821  12.6968048 103.8044617  71.4753080  12.0212952 104.4725701
  71.7019081  12.2100422 102.9876770  73.5753849   7.1868095 102.5052655
  73.7428252   8.0548332 102.8723126  73.3851018   7.3495377 101.5813944
  73.5543070   9.6425753 103.4899321  73.4342695  10.0882803 104.3284802
  72.8595659   9.9911070 102.9312860  71.3149962  22.4129394 107.1389453
  71.2373992  23.3637219 107.2177933  70.7111606  22.0675267 107.7964379
  79.2528136  10.1147226 104.3179656  80.1645993  10.3474613 104.1427353
  78.7437784  10.6984270 103.7554734  73.4125681  14.8347452 108.9743322
  73.8764026  15.1135155 108.1847945  73.1482479  13.9330897 108.7916413
  72.3494567  10.9570605 105.7832887  73.0518610  11.4091648 106.2506814
  72.0175195  10.3154424 106.4112780  73.5888331  17.7711547 105.8594992
  73.4534006  18.6163083 106.2879840  74.1298144  17.9730825 105.0960926
  67.0417729  15.2886985 106.4322918  67.5542249  16.0830236 106.5828482
  67.6940442  14.5913276 106.3656519  68.8512613  18.4052742 108.5145671
  69.0279242  19.3270706 108.3266655  69.6469447  18.0911161 108.9440051
  76.9031078  11.2850720 102.8966321  76.3877701  12.0555325 103.1354708
  76.6308386  10.6115856 103.5199382  81.8765352  14.0383075 104.8319495
  81.0994794  13.6994234 104.3874657  82.5556833  14.0435698 104.1574460
  76.6917381   9.1577812 104.7226102  76.3867516   9.4723962 105.5736245
  77.6447823   9.2359232 104.7653435  75.1363813  15.3168036 106.3719056
  74.6085174  14.5820795 106.0592294  74.6351315  16.0942712 106.1259025
  70.1952127   8.0092163 102.7521553  69.3589440   8.3466850 103.0730828
  70.0556897   7.8741143 101.8148690  73.2816413  13.1348246  99.3754029
  72.3743475  12.9037499  99.5745178  73.7787445  12.3385865  99.5628011
  76.1884492  21.8445753 102.2950715  75.5146190  22.1477450 102.9035673
  76.5750314  22.6474834 101.9456172  76.1877996  10.7402300 106.9151065
  76.9349815  11.2523697 106.6058187  76.4569586  10.4186353 107.7755459
  74.4604646  13.2360841 103.8978019  73.5515865  12.9519874 103.9950489
  74.4899730  13.6559919 103.0381326  79.6923914  16.8467430 107.6669187
  79.2386241  16.0058340 107.7234377  79.0617880  17.4828829 108.0043967
  78.1356853  18.6843927 108.6019005  78.4279827  19.2448984 107.8831371
  78.6455473  18.9772488 109.3572164  74.1580734  14.7769585 101.2366098
  73.7200164  14.0605443 100.7771735  74.8991175  15.0045699 100.6751189
  73.0990478  19.4624278 109.6912458  73.0566657  19.6885124 108.7620990
  74.0153177  19.2287653 109.8398259  71.2156279  16.3387307 109.4874421
  72.0096877  15.8437627 109.2856996  70.5047971  15.8105170 109.1242127
  74.3875707  22.0125426 104.5097795  74.5627463  21.5413469 105.3243417
  73.7008495  22.6391192 104.7379055  78.2791962  13.6353966 100.8298155
  77.6621132  12.9100794 100.7331208  77.8108450  14.3963326 100.4865230
  68.9536792  25.1614788 111.2837655  69.1933390  25.7933313 111.9616673
  68.1105989  24.8102828 111.5703014  70.0690508   7.8539390  99.9519460
  69.1919974   7.7328191  99.5881706  70.5448261   7.0625469  99.6998348
  73.2554434  20.2065681 107.1981980  72.4721955  20.7487361 107.2920205
  73.9547179  20.7239660 107.5976221  77.6480864  14.7731998 107.4154609
  76.7137143  14.8933460 107.2459313  77.8257533  13.8704464 107.1514619
  79.1029647  16.9593138 104.9490795  79.3789491  16.8449733 105.8584669
  78.2334146  16.5610623 104.9102968  75.7383711  21.2079489 108.5923609
  75.9206105  20.3901145 109.0551361  76.5616697  21.4247181 108.1548499
  76.0725876  20.1347674 105.8538657  76.6013643  19.6240129 105.2408819
  76.3354096  19.8190204 106.7184190  69.4281624  21.1862791 108.6136433
  68.7592000  21.6708918 108.1300473  69.2894494  21.4332011 109.5279812
  76.7055280  21.1688510 112.1982774  76.5806420  20.3678250 111.6893719
  77.3634371  21.6634703 111.7096744  75.7736622  18.7650246 110.0266676
  75.6261584  17.8366953 110.2074246  76.5990115  18.7870337 109.5423751
  79.3770744  19.5878805 111.1131549  80.3017291  19.3821666 110.9756000
  79.2086047  19.3395206 112.0220890  75.7698136   6.6188084 105.0198793
  75.9861751   7.5012722 104.7187622  75.2892203   6.2274297 104.2904435
  79.1666060  20.1064472 106.4693640  79.3402937  19.5410895 105.7167493
  79.6594951  20.9065367 106.2873130  80.1541232  19.4231237 103.5690539
  80.8492137  20.0437929 103.7877853  80.4964383  18.5726588 103.8442916
  82.0532656  16.8730942 105.0977869  82.5783980  17.2118215 104.3727189
  81.9655008  15.9377958 104.9141004  73.7373316  22.9402925 109.4573123
  73.2978307  22.4479304 110.1505979  74.4881433  22.3975893 109.2165198
  70.7460695  17.0344858 105.0053885  70.8948816  17.7180322 104.3520557
  71.5527139  17.0149948 105.5203340  74.2456101  19.5292988 102.4765632
  73.6730068  20.1483175 102.0236104  74.8188895  20.0792350 103.0105554
  77.4653361  19.8130138 103.6074214  78.3984034  19.7475700 103.8107090
  77.3776573  20.6486405 103.1488747  80.0941377  19.1296009 100.5678162
  80.0155009  18.7955872 101.4613920  80.9151044  19.6217777 100.5669634
  74.6302899  10.8653801  99.8181685  75.5762004  10.7360009  99.8870103
  74.2517144  10.1268463 100.2951113  72.8145816   8.7903777  99.7536570
  71.9077272   8.4936890  99.8299284  73.0921798   8.4933596  98.8870856
  71.5844601   5.6490713  99.8948549  72.4463765   5.9745611 100.1544366
  71.7694945   4.8622209  99.3821615  77.6645329  16.4464004 100.1888140
  78.3681179  16.6514007 100.8045796  76.9407978  17.0140766 100.4537224
  78.4943139  12.1973865 106.3090411  78.4378341  12.6542417 105.4698043
  79.0471482  11.4364550 106.1313253  69.6855492  22.1596398 111.3930008
  69.5687876  23.1041830 111.2908698  68.8647938  21.8569959 111.7815807
  79.5732026  16.8846533 102.2386600  80.4077630  16.4527732 102.0564075
  79.4116369  16.7128547 103.1663495  79.2277919  13.3878647 103.6042940
  79.1726722  13.2222918 102.6631384  78.6023974  14.0954680 103.7605129
  72.4663608  21.5655646 111.2696015  71.5159239  21.5657508 111.1560387
  72.7696094  20.8188381 110.7532049  80.8692824  29.2079089 108.2600193
  80.3057689  29.1169026 107.4916481  80.7545219  28.3878994 108.7402685
  78.4157255  30.7030281 111.0984413  79.2078547  30.3621105 110.6830713
  78.6553906  30.8125256 112.0186567  86.4492382  32.8750057 103.5714658
  85.7980362  33.4604137 103.1848671  87.2436745  33.4056252 103.6309695
  80.3748009  29.9639194 103.9701792  81.1478885  29.4168181 103.8314668
  80.7273408  30.8283443 104.1816253  82.7114287  26.1231860 101.6020242
  82.9639808  25.6013381 100.8403705  81.7738846  25.9598005 101.7046926
  87.9267647  30.5640489 104.1083642  87.2913480  30.6375115 104.8204547
  87.5965054  31.1534088 103.4302721  82.4310576  28.0259966 103.8044617
  82.3146834  27.3504869 104.4725701  82.5412836  27.5392340 102.9876770
  84.7742117  27.4870113 107.5091306  84.4100324  26.9600734 108.2204228
  85.6309233  27.0968582 107.3357792  84.4147604  22.5160013 102.5052655
  84.5822006  23.3840249 102.8723126  84.2244773  22.6787294 101.5813944
  80.6235419  27.4290789 110.2055189  79.6985915  27.2967003 110.4132881
  80.8719832  28.2085008 110.7025132  84.3936825  24.9717670 103.4899321
  84.2736450  25.4174721 104.3284802  83.6989413  25.3202988 102.9312860
  77.9844230  27.0724062 111.0398979  78.1136611  27.3258541 111.9538390
  77.3041681  27.6651770 110.7203634  82.1543717  37.7421312 107.1389453
  82.0767747  38.6929137 107.2177933  81.5505360  37.3967185 107.7964379
  90.0921891  25.4439143 104.3179656  91.0039747  25.6766530 104.1427353
  89.5831538  26.0276188 103.7554734  84.2519435  30.1639370 108.9743322
  84.7157781  30.4427073 108.1847945  83.9876233  29.2622815 108.7916413
  81.1443516  29.7110852 111.9123085  81.7144873  30.1398120 111.2740570
  81.7351628  29.4293436 112.6107271  83.1888321  26.2862522 105.7832887
  83.8912365  26.7383566 106.2506814  82.8568950  25.6446341 106.4112780
  76.9313655  24.5446075 111.0850021  76.1412709  24.8003604 110.6090131
  77.4224902  25.3594413 111.1902061  78.8828401  24.9090654 108.0433498
  78.0859564  25.0209349 108.5616993  78.6553993  25.2477306 107.1774388
  75.2151358  24.7976565 113.5165012  75.4659397  25.6823575 113.7822588
  75.7510907  24.6181167 112.7440103  84.4282086  33.1003465 105.8594992
  84.2927761  33.9455001 106.2879840  84.9691898  33.3022743 105.0960926
  77.8811483  30.6178903 106.4322918  78.3936004  31.4122153 106.5828482
  78.5334196  29.9205193 106.3656519  79.6906368  33.7344659 108.5145671
  79.8672996  34.6562624 108.3266655  80.4863201  33.4203079 108.9440051
  80.8137683  35.2522833 114.5156013  81.3645108  35.1239896 113.7433007
  79.9749159  35.5517722 114.1650906  75.8460400  28.9467557 107.2082488
  76.6835622  29.3564566 106.9916196  76.0238668  28.0066999 107.1782682
  87.7424832  26.6142638 102.8966321  87.2271456  27.3847243 103.1354708
  87.4702141  25.9407774 103.5199382  85.3271943  21.4592339 107.9551559
  84.4713539  21.0699189 107.7757198  85.7398895  21.5384300 107.0951345
  92.7159106  29.3674993 104.8319495  91.9388549  29.0286152 104.3874657
  93.3950587  29.3727616 104.1574460  87.5311135  24.4869730 104.7226102
  87.2261271  24.8015879 105.5736245  88.4841577  24.5651150 104.7653435
  85.9757567  30.6459953 106.3719056  85.4478929  29.9112713 106.0592294
  85.4745070  31.4234630 106.1259025  80.7076295  21.3079620 108.7325668
  81.2820047  21.0854801 107.9998861  81.2947277  21.3768314 109.4854269
  81.0345882  23.3384081 102.7521553  80.1983194  23.6758767 103.0730828
  80.8950651  23.2033060 101.8148690  83.0098962  18.1820869 107.4600737
  82.3563375  17.8669886 106.8357352  82.9679437  17.5596609 108.1860560
  84.1210167  28.4640164  99.3754029  83.2137229  28.2329417  99.5745178
  84.6181199  27.6677783  99.5628011  87.0278246  37.1737671 102.2950715
  86.3539945  37.4769368 102.9035673  87.4144068  37.9766751 101.9456172
  87.0271751  26.0694218 106.9151065  87.7743569  26.5815615 106.6058187
  87.2963340  25.7478271 107.7755459  85.2998401  28.5652759 103.8978019
  84.3909620  28.2811791 103.9950489  85.3293485  28.9851837 103.0381326
  90.5317668  32.1759348 107.6669187  90.0779995  31.3350258 107.7234377
  89.9011635  32.8120746 108.0043967  88.9750607  34.0135845 108.6019005
  89.2673582  34.5740902 107.8831371  89.4849228  34.3064406 109.3572164
  75.8686571  26.2858273 107.8793222  75.6710971  25.6927633 107.1544288
  75.3133235  25.9810483 108.5969160  83.8483295  26.1781379 109.9987815
  83.9031905  25.2255216 109.9230291  83.0374497  26.3340818 110.4829113
  84.9974489  30.1061502 101.2366098  84.5593918  29.3897361 100.7771735
  85.7384929  30.3337617 100.6751189  81.7875655  24.7958439 107.7578194
  80.9743520  25.0952609 108.1643386  82.2834649  24.4014128 108.4752676
  83.9384233  34.7916196 109.6912458  83.8960411  35.0177042 108.7620990
  84.8546931  34.5579570 109.8398259  82.0550033  31.6679225 109.4874421
  82.8490632  31.1729545 109.2856996  81.3441726  31.1397088 109.1242127
  86.8744878  34.0497320 113.8386789  86.9281900  34.6188257 114.6064504
  86.0059659  34.2199205 113.4740826  78.3632797  25.8122307 105.5634174
  77.4330385  25.7506762 105.7804136  78.4590269  25.2898259 104.7670815
  78.2818346  22.3377119 108.1512415  78.5425163  23.2522453 108.0421576
  79.1035518  21.8701562 108.3009028  84.6321309  32.2408247 113.1672258
  84.4932395  31.8727031 114.0398196  83.8435906  32.7555886 112.9956216
  85.2269461  37.3417343 104.5097795  85.4021217  36.8705386 105.3243417
  84.5402249  37.9683109 104.7379055  86.1826524  31.6189849 110.5561096
  85.8476357  31.5790619 111.4518746  85.6830470  30.9534565 110.0831506
  89.1185716  28.9645884 100.8298155  88.5014887  28.2392712 100.7331208
  88.6502205  29.7255244 100.4865230  79.7930547  40.4906706 111.2837655
  80.0327145  41.1225230 111.9616673  78.9499743  40.1394746 111.5703014
  80.9084262  23.1831308  99.9519460  80.0313728  23.0620109  99.5881706
  81.3842015  22.3917386  99.6998348  72.4286402  27.9708468 110.0460967
  73.1157442  27.6570198 109.4581982  72.2734531  28.8749833 109.7728218
  77.2321124  22.8598664 114.4745991  77.1479313  22.2524334 113.7396401
  76.4103831  23.3507683 114.4755487  84.3058408  36.2985828 113.6879159
  84.2328580  37.1040800 114.1998463  83.8635802  36.4977794 112.8627180
  84.0948188  35.5357598 107.1981980  83.3115710  36.0779279 107.2920205
  84.7940933  36.0531578 107.5976221  86.7657092  36.1972662 115.8437317
  87.4785064  36.8320127 115.7713219  86.2747121  36.2936528 115.0277319
  88.4874619  30.1023915 107.4154609  87.5530898  30.2225378 107.2459313
  88.6651287  29.1996382 107.1514619  83.9879807  23.4869611 109.5687870
  83.6177594  22.9340651 110.2568776  84.4838899  22.8827744 109.0162870
  81.8169006  33.9467106 116.6642888  82.5178465  34.5803589 116.8172282
  81.3464120  34.2881838 115.9038527  89.9423401  32.2885056 104.9490795
  90.2183245  32.1741650 105.8584669  89.0727900  31.8902541 104.9102968
  86.5777465  36.5371407 108.5923609  86.7599860  35.7193063 109.0551361
  87.4010451  36.7539099 108.1548499  86.9119631  35.4639592 105.8538657
  87.4407397  34.9532046 105.2408819  87.1747850  35.1482122 106.7184190
  77.4136724  33.4803461 113.5973991  77.9990160  32.7347149 113.7301895
  77.2161562  33.7907418 114.4810655  80.2675379  36.5154708 108.6136433
  79.5985754  37.0000836 108.1300473  80.1288248  36.7623929 109.5279812
  72.0054378  26.0509061 112.3178434  72.0438478  25.5172652 113.1115552
  71.4994671  25.5244267 111.6989411  84.4080647  38.5498452 115.2119092
  84.9598955  38.7130073 115.9768177  84.7486841  39.1402890 114.5399116
  75.6362956  24.7773163 105.3932365  75.9316397  23.8683842 105.3399419
  74.7350992  24.7560903 105.0713368  87.5449035  36.4980427 112.1982774
  87.4200174  35.6970167 111.6893719  88.2028126  36.9926621 111.7096744
  79.1657203  22.8529160 111.3759914  78.4443789  23.4665128 111.2367387
  79.9550459  23.3886925 111.2976560  77.3650797  22.4587261 105.5171691
  77.0363504  21.5784640 105.3346796  77.7190168  22.4034930 106.4048080
  86.6130376  34.0942164 110.0266676  86.4655339  33.1658871 110.2074246
  87.4383870  34.1162254 109.5423751  80.4792621  22.7460231 105.8847168
  80.8188693  23.2746152 105.1625777  80.9264741  23.0840637 106.6605735
  90.2164498  34.9170722 111.1131549  91.1411046  34.7113584 110.9756000
  90.0479802  34.6687124 112.0220890  82.4660768  21.2434852 104.0840461
  83.1869130  21.6216105 103.5804178  81.8426072  21.9623729 104.1875439
  86.6091891  21.9480001 105.0198793  86.8255505  22.8304639 104.7187622
  86.1285958  21.5566215 104.2904435  81.3491112  24.9065715 111.5969538
  81.2035693  25.2206018 112.4893819  80.8716316  25.5250615 111.0440437
  90.0059814  35.4356390 106.4693640  90.1796692  34.8702812 105.7167493
  90.4988706  36.2357285 106.2873130  75.8236774  27.4471059 114.5357199
  75.2790242  28.2230867 114.6677473  76.7016124  27.7941863 114.3776321
  82.6124391  20.7782643 106.9137998  82.7340302  19.8499289 107.1128885
  82.3226433  20.7921329 106.0016313  90.9934987  34.7523154 103.5690539
  91.6885892  35.3729847 103.7877853  91.3358137  33.9018506 103.8442916
  92.8926410  32.2022860 105.0977869  93.4177734  32.5410133 104.3727189
  92.8048763  31.2669875 104.9141004  84.5767071  38.2694843 109.4573123
  84.1372061  37.7771222 110.1505979  85.3275188  37.7267811 109.2165198
  77.0559410  34.4606384 109.4597751  77.8817430  34.1610156 109.0796394
  76.7053462  33.6914006 109.9087539  82.0240943  33.8132852 111.5295424
  81.4020952  33.1503557 111.2297652  82.6945810  33.8393984 110.8469072
  75.2568015  32.3792710 110.4186684  74.4199923  31.9514885 110.2370685
  75.2291660  32.5725154 111.3557475  81.5854450  32.3636776 105.0053885
  81.7342570  33.0472240 104.3520557  82.3920893  32.3441866 105.5203340
  79.3407083  28.3901953 106.0114954  79.0953125  27.4864283 106.2095164
  79.5102997  28.3919104 105.0694432  78.6102730  24.1230311 103.5101115
  77.9171975  24.1974666 102.8541151  78.3654482  23.3590654 104.0322632
  85.0849855  34.8584906 102.4765632  84.5123822  35.4775093 102.0236104
  85.6582649  35.4084268 103.0105554  88.3047115  35.1422056 103.6074214
  89.2377788  35.0767618 103.8107090  88.2170328  35.9778323 103.1488747
  90.9335132  34.4587927 100.5678162  90.8548763  34.1247790 101.4613920
  91.7544799  34.9509694 100.5669634  85.4696654  26.1945719  99.8181685
  86.4155759  26.0651927  99.8870103  85.0910899  25.4560381 100.2951113
  83.6539571  24.1195695  99.7536570  82.7471026  23.8228808  99.8299284
  83.9315552  23.8225513  98.8870856  74.5717511  25.4402059 110.2035616
  74.2520296  24.5867367 109.9109990  74.0250940  25.6550637 110.9593584
  78.3497419  28.1564500 113.9205123  78.5683429  29.0881607 113.9393157
  78.7623193  27.7972474 114.7059927  85.2701637  18.6632585 105.9080811
  84.4602365  18.3179670 106.2836057  85.9586054  18.3540129 106.4968423
  82.4238356  20.9782630  99.8948549  83.2857520  21.3037529 100.1544366
  82.6088700  20.1914126  99.3821615  74.4405771  29.0604970 112.1728738
  73.7469243  28.6458923 111.6598692  75.1878762  29.1025507 111.5762157
  76.3542514  28.9923224 110.0494753  76.3313202  29.0910911 109.0976636
  76.6643150  29.8388375 110.3711919  79.0129892  31.0499379 114.1641367
  79.9673145  31.0183321 114.0971299  78.8142415  30.5890003 114.9791593
  79.6029274  29.6200495 116.7312165  80.4222163  30.1144574 116.7547002
  79.8766082  28.7032463 116.7029732  77.3680121  36.5918998 111.1811565
  77.2334588  35.8319399 110.6149563  76.9512183  37.3159898 110.7140354
  88.5039084  31.7755922 100.1888140  89.2074934  31.9805924 100.8045796
  87.7801732  32.3432684 100.4537224  89.3336894  27.5265783 106.3090411
  89.2772095  27.9834335 105.4698043  89.8865236  26.7656468 106.1313253
  80.5249246  37.4888315 111.3930008  80.4081631  38.4333748 111.2908698
  79.7041693  37.1861877 111.7815807  90.4125781  32.2138451 102.2386600
  91.2471385  31.7819650 102.0564075  90.2510124  32.0420465 103.1663495
  90.0671673  28.7170564 103.6042940  90.0120477  28.5514836 102.6631384
  89.4417728  29.4246597 103.7605129  83.3767799  18.2178673 103.1828258
  83.3646468  19.1620513 103.3396529  84.2691220  18.0348819 102.8887719
  81.5503761  38.1416577 114.6085936  82.4531007  38.1740188 114.9252431
  81.3241131  37.2117028 114.6232272  83.3057363  36.8947564 111.2696015
  82.3552994  36.8949425 111.1560387  83.6089849  36.1480298 110.7532049
  91.7086578  44.5371007 108.2600193  91.1451443  44.4460944 107.4916481
  91.5938973  43.7170911 108.7402685  89.2551010  46.0322198 111.0984413
  90.0472302  45.6913023 110.6830713  89.4947660  46.1417173 112.0186567
  97.2886137  48.2041974 103.5714658  96.6374117  48.7896055 103.1848671
  98.0830500  48.7348169 103.6309695  91.2141764  45.2931112 103.9701792
  91.9872640  44.7460099 103.8314668  91.5667163  46.1575361 104.1816253
  93.5508042  41.4523778 101.6020242  93.8033562  40.9305299 100.8403705
  92.6132601  41.2889923 101.7046926  98.7661402  45.8932406 104.1083642
  98.1307235  45.9667033 104.8204547  98.4358808  46.4826005 103.4302721
  93.2704330  43.3551884 103.8044617  93.1540589  42.6796787 104.4725701
  93.3806590  42.8684258 102.9876770  95.6135871  42.8162031 107.5091306
  95.2494079  42.2892652 108.2204228  96.4702987  42.4260500 107.3357792
  95.2541358  37.8451930 102.5052655  95.4215761  38.7132167 102.8723126
  95.0638527  38.0079212 101.5813944  91.4629173  42.7582706 110.2055189
  90.5379670  42.6258920 110.4132881  91.7113586  43.5376925 110.7025132
  95.2330579  40.3009588 103.4899321  95.1130204  40.7466639 104.3284802
  94.5383168  40.6494906 102.9312860  88.8237984  42.4015980 111.0398979
  88.9530365  42.6550459 111.9538390  88.1435435  42.9943688 110.7203634
  92.9937471  53.0713230 107.1389453  92.9161501  54.0221055 107.2177933
  92.3899115  52.7259102 107.7964379 100.9315645  40.7731061 104.3179656
 101.8433502  41.0058448 104.1427353 100.4225292  41.3568105 103.7554734
  95.0913190  45.4931288 108.9743322  95.5551535  45.7718991 108.1847945
  94.8269988  44.5914732 108.7916413  91.9837271  45.0402769 111.9123085
  92.5538628  45.4690038 111.2740570  92.5745383  44.7585354 112.6107271
  94.0282076  41.6154440 105.7832887  94.7306119  42.0675484 106.2506814
  93.6962704  40.9738259 106.4112780  87.7707410  39.8737993 111.0850021
  86.9806464  40.1295521 110.6090131  88.2618657  40.6886331 111.1902061
  89.7222155  40.2382572 108.0433498  88.9253318  40.3501266 108.5616993
  89.4947747  40.5769224 107.1774388  86.0545113  40.1268483 113.5165012
  86.3053151  41.0115493 113.7822588  86.5904661  39.9473085 112.7440103
  95.2675840  48.4295383 105.8594992  95.1321515  49.2746918 106.2879840
  95.8085653  48.6314660 105.0960926  88.7205238  45.9470821 106.4322918
  89.2329758  46.7414071 106.5828482  89.3727950  45.2497111 106.3656519
  90.5300122  49.0636577 108.5145671  90.7066751  49.9854542 108.3266655
  91.3256956  48.7494996 108.9440051  91.6531438  50.5814751 114.5156013
  92.2038863  50.4531814 113.7433007  90.8142914  50.8809640 114.1650906
  86.6854154  44.2759475 107.2082488  87.5229376  44.6856483 106.9916196
  86.8632422  43.3358917 107.1782682  98.5818587  41.9434556 102.8966321
  98.0665210  42.7139160 103.1354708  98.3095895  41.2699692 103.5199382
  96.1665698  36.7884256 107.9551559  95.3107294  36.3991107 107.7757198
  96.5792649  36.8676217 107.0951345 103.5552861  44.6966910 104.8319495
 102.7782303  44.3578070 104.3874657 104.2344342  44.7019533 104.1574460
  98.3704890  39.8161648 104.7226102  98.0655025  40.1307797 105.5736245
  99.3235332  39.8943068 104.7653435  96.8151322  45.9751871 106.3719056
  96.2872683  45.2404631 106.0592294  96.3138824  46.7526547 106.1259025
  91.5470049  36.6371537 108.7325668  92.1213801  36.4146719 107.9998861
  92.1341032  36.7060232 109.4854269  91.8739636  38.6675998 102.7521553
  91.0376949  39.0050685 103.0730828  91.7344406  38.5324978 101.8148690
  93.8492717  33.5112786 107.4600737  93.1957129  33.1961803 106.8357352
  93.8073191  32.8888527 108.1860560  94.9603922  43.7932081  99.3754029
  94.0530984  43.5621335  99.5745178  95.4574954  42.9969701  99.5628011
  97.8672001  52.5029589 102.2950715  97.1933699  52.8061285 102.9035673
  98.2537823  53.3058669 101.9456172  97.8665505  41.3986135 106.9151065
  98.6137324  41.9107533 106.6058187  98.1357095  41.0770188 107.7755459
  96.1392155  43.8944676 103.8978019  95.2303374  43.6103709 103.9950489
  96.1687239  44.3143755 103.0381326 101.3711423  47.5051266 107.6669187
 100.9173750  46.6642176 107.7234377 100.7405389  48.1412664 108.0043967
  99.8144362  49.3427762 108.6019005 100.1067336  49.9032819 107.8831371
 100.3242982  49.6356323 109.3572164  86.7080326  41.6150190 107.8793222
  86.5104725  41.0219551 107.1544288  86.1526990  41.3102401 108.5969160
  94.6877049  41.5073297 109.9987815  94.7425659  40.5547133 109.9230291
  93.8768251  41.6632736 110.4829113  95.8368243  45.4353420 101.2366098
  95.3987673  44.7189279 100.7771735  96.5778684  45.6629535 100.6751189
  92.6269409  40.1250357 107.7578194  91.8137275  40.4244527 108.1643386
  93.1228403  39.7306045 108.4752676  94.7777987  50.1208113 109.6912458
  94.7354166  50.3468960 108.7620990  95.6940686  49.8871488 109.8398259
  92.8943788  46.9971142 109.4874421  93.6884386  46.5021463 109.2856996
  92.1835480  46.4689006 109.1242127  97.7138632  49.3789238 113.8386789
  97.7675655  49.9480174 114.6064504  96.8453414  49.5491123 113.4740826
  89.2026551  41.1414224 105.5634174  88.2724139  41.0798680 105.7804136
  89.2984023  40.6190177 104.7670815  89.1212100  37.6669037 108.1512415
  89.3818918  38.5814370 108.0421576  89.9429273  37.1993480 108.3009028
  95.4715064  47.5700164 113.1672258  95.3326150  47.2018949 114.0398196
  94.6829660  48.0847804 112.9956216  96.0663216  52.6709261 104.5097795
  96.2414971  52.1997304 105.3243417  95.3796004  53.2975027 104.7379055
  97.0220279  46.9481767 110.5561096  96.6870112  46.9082537 111.4518746
  96.5224225  46.2826483 110.0831506  99.9579471  44.2937802 100.8298155
  99.3408641  43.5684630 100.7331208  99.4895959  45.0547162 100.4865230
  90.6324301  55.8198624 111.2837655  90.8720899  56.4517148 111.9616673
  89.7893498  55.4686664 111.5703014  91.7478017  38.5123226  99.9519460
  90.8707483  38.3912027  99.5881706  92.2235770  37.7209304  99.6998348
  83.2680157  43.3000386 110.0460967  83.9551197  42.9862116 109.4581982
  83.1128285  44.2041750 109.7728218  88.0714879  38.1890582 114.4745991
  87.9873068  37.5816252 113.7396401  87.2497585  38.6799600 114.4755487
  95.1452163  51.6277746 113.6879159  95.0722334  52.4332718 114.1998463
  94.7029556  51.8269712 112.8627180  94.9341943  50.8649516 107.1981980
  94.1509464  51.4071196 107.2920205  95.6334688  51.3823496 107.5976221
  99.3268373  45.4315833 107.4154609  98.3924652  45.5517295 107.2459313
  99.5045042  44.5288300 107.1514619  94.8273561  38.8161529 109.5687870
  94.4571349  38.2632569 110.2568776  95.3232654  38.2119662 109.0162870
  92.6562760  49.2759024 116.6642888  93.3572219  49.9095507 116.8172282
  92.1857875  49.6173755 115.9038527 100.7817156  47.6176973 104.9490795
 101.0577000  47.5033568 105.8584669  99.9121655  47.2194458 104.9102968
  97.4171220  51.8663324 108.5923609  97.5993614  51.0484980 109.0551361
  98.2404206  52.0831017 108.1548499  97.7513385  50.7931509 105.8538657
  98.2801152  50.2823964 105.2408819  98.0141605  50.4774040 106.7184190
  88.2530478  48.8095379 113.5973991  88.8383915  48.0639067 113.7301895
  88.0555317  49.1199335 114.4810655  91.1069133  51.8446626 108.6136433
  90.4379509  52.3292754 108.1300473  90.9682003  52.0915847 109.5279812
  82.8448133  41.3800979 112.3178434  82.8832232  40.8464570 113.1115552
  82.3388426  40.8536184 111.6989411  86.4756710  40.1065081 105.3932365
  86.7710151  39.1975759 105.3399419  85.5744746  40.0852821 105.0713368
  98.3842789  51.8272345 112.1982774  98.2593929  51.0262085 111.6893719
  99.0421880  52.3218538 111.7096744  90.0050957  38.1821078 111.3759914
  89.2837543  38.7957045 111.2367387  90.7944213  38.7178842 111.2976560
  88.2044552  37.7879179 105.5171691  87.8757258  36.9076558 105.3346796
  88.5583923  37.7326847 106.4048080  97.4524131  49.4234081 110.0266676
  97.3049093  48.4950789 110.2074246  98.2777624  49.4454172 109.5423751
  91.3186375  38.0752149 105.8847168  91.6582448  38.6038070 105.1625777
  91.7658496  38.4132555 106.6605735 101.0558253  50.2462640 111.1131549
 101.9804800  50.0405502 110.9756000 100.8873556  49.9979041 112.0220890
  93.3054522  36.5726770 104.0840461  94.0262885  36.9508023 103.5804178
  92.6819826  37.2915647 104.1875439  97.4485645  37.2771919 105.0198793
  97.6649260  38.1596557 104.7187622  96.9679712  36.8858132 104.2904435
  92.1884867  40.2357632 111.5969538  92.0429447  40.5497935 112.4893819
  91.7110070  40.8542533 111.0440437 100.8453569  50.7648308 106.4693640
 101.0190446  50.1994730 105.7167493 101.3382460  51.5649202 106.2873130
  86.6630529  42.7762977 114.5357199  86.1183997  43.5522785 114.6677473
  87.5409879  43.1233781 114.3776321  93.4518145  36.1074561 106.9137998
  93.5734057  35.1791207 107.1128885  93.1620188  36.1213247 106.0016313
 101.8328741  50.0815072 103.5690539 102.5279646  50.7021765 103.7877853
 102.1751892  49.2310423 103.8442916  87.4496551  41.9032873 117.4287356
  86.7078287  42.0515508 118.0151986  87.1289295  42.1641139 116.5654105
 103.7320164  47.5314778 105.0977869 104.2571489  47.8702050 104.3727189
 103.6442517  46.5961793 104.9141004  95.4160825  53.5986761 109.4573123
  94.9765816  53.1063140 110.1505979  96.1668942  53.0559728 109.2165198
  87.8953164  49.7898302 109.4597751  88.7211184  49.4902074 109.0796394
  87.5447216  49.0205924 109.9087539  92.8634697  49.1424770 111.5295424
  92.2414707  48.4795475 111.2297652  93.5339564  49.1685902 110.8469072
  86.0961769  47.7084628 110.4186684  85.2593678  47.2806802 110.2370685
  86.0685415  47.9017071 111.3557475  92.4248204  47.6928693 105.0053885
  92.5736325  48.3764158 104.3520557  93.2314648  47.6733783 105.5203340
  90.1800837  43.7193871 106.0114954  89.9346879  42.8156201 106.2095164
  90.3496752  43.7211021 105.0694432  89.4496485  39.4522228 103.5101115
  88.7565730  39.5266583 102.8541151  89.2048237  38.6882572 104.0322632
  95.9243610  50.1876824 102.4765632  95.3517577  50.8067011 102.0236104
  96.4976403  50.7376185 103.0105554  99.1440870  50.4713974 103.6074214
 100.0771543  50.4059536 103.8107090  99.0564082  51.3070241 103.1488747
 101.7728886  49.7879844 100.5678162 101.6942518  49.4539708 101.4613920
 102.5938553  50.2801612 100.5669634  96.3090408  41.5237636  99.8181685
  97.2549513  41.3943845  99.8870103  95.9304653  40.7852298 100.2951113
  94.4933325  39.4487613  99.7536570  93.5864781  39.1520726  99.8299284
  94.7709306  39.1517431  98.8870856  85.4111266  40.7693976 110.2035616
  85.0914050  39.9159284 109.9109990  84.8644694  40.9842554 110.9593584
  89.1891173  43.4856417 113.9205123  89.4077183  44.4173525 113.9393157
  89.6016947  43.1264392 114.7059927  96.1095391  33.9924503 105.9080811
  95.2996120  33.6471588 106.2836057  96.7979808  33.6832046 106.4968423
  93.2632110  36.3074548  99.8948549  94.1251274  36.6329446 100.1544366
  93.4482454  35.5206044  99.3821615  85.2799526  44.3896888 112.1728738
  84.5862997  43.9750841 111.6598692  86.0272517  44.4317424 111.5762157
  87.1936268  44.3215142 110.0494753  87.1706956  44.4202829 109.0976636
  87.5036905  45.1680292 110.3711919  89.8523646  46.3791297 114.1641367
  90.8066900  46.3475239 114.0971299  89.6536170  45.9181920 114.9791593
  90.4423028  44.9492413 116.7312165  91.2615917  45.4436491 116.7547002
  90.7159836  44.0324381 116.7029732  88.2073875  51.9210916 111.1811565
  88.0728343  51.1611317 110.6149563  87.7905937  52.6451816 110.7140354
  99.3432838  47.1047840 100.1888140 100.0468688  47.3097842 100.8045796
  98.6195487  47.6724601 100.4537224 100.1730648  42.8557701 106.3090411
 100.1165850  43.3126252 105.4698043 100.7258991  42.0948385 106.1313253
  91.3643001  52.8180233 111.3930008  91.2475385  53.7625666 111.2908698
  90.5435447  52.5153795 111.7815807 101.2519535  47.5430369 102.2386600
 102.0865139  47.1111567 102.0564075 101.0903878  47.3712382 103.1663495
 100.9065428  44.0462482 103.6042940 100.8514231  43.8806754 102.6631384
 100.2811483  44.7538515 103.7605129  85.6957943  39.2830546 117.4304362
  86.3416806  38.7729500 117.9191587  85.4875094  40.0199228 118.0047787
  94.2161553  33.5470591 103.1828258  94.2040223  34.4912431 103.3396529
  95.1084975  33.3640737 102.8887719  92.3897515  53.4708495 114.6085936
  93.2924762  53.5032105 114.9252431  92.1634885  52.5408946 114.6232272
  94.1451117  52.2239481 111.2696015  93.1946748  52.2241343 111.1560387
  94.4483603  51.4772216 110.7532049 102.5480333  59.8662924 108.2600193
 101.9845198  59.7752861 107.4916481 102.4332728  59.0462829 108.7402685
 108.1279891  63.5333892 103.5714658 107.4767871  64.1187973 103.1848671
 108.9224254  64.0640087 103.6309695 102.0535518  60.6223029 103.9701792
 102.8266394  60.0752016 103.8314668 102.4060917  61.4867279 104.1816253
 104.3901796  56.7815695 101.6020242 104.6427317  56.2597217 100.8403705
 103.4526355  56.6181841 101.7046926 109.6055156  61.2224324 104.1083642
 108.9700989  61.2958951 104.8204547 109.2752563  61.8117923 103.4302721
 104.1098085  58.6843801 103.8044617 103.9934343  58.0088705 104.4725701
 104.2200345  58.1976175 102.9876770 106.4529626  58.1453948 107.5091306
 106.0887833  57.6184569 108.2204228 107.3096742  57.7552417 107.3357792
 106.0935113  53.1743848 102.5052655 106.2609515  54.0424085 102.8723126
 105.9032282  53.3371130 101.5813944 106.0724334  55.6301506 103.4899321
 105.9523959  56.0758556 104.3284802 105.3776922  55.9786823 102.9312860
 111.7709400  56.1022979 104.3179656 112.6827256  56.3350366 104.1427353
 111.2619047  56.6860023 103.7554734 104.8675830  56.9446358 105.7832887
 105.5699873  57.3967401 106.2506814 104.5356459  56.3030177 106.4112780
  98.6101164  55.2029910 111.0850021  97.8200218  55.4587439 110.6090131
  99.1012411  56.0178248 111.1902061 100.5615909  55.5674490 108.0433498
  99.7647073  55.6793184 108.5616993 100.3341502  55.9061142 107.1774388
  99.5598992  61.2762738 106.4322918 100.0723513  62.0705989 106.5828482
 100.2121705  60.5789029 106.3656519  97.5247909  59.6051393 107.2082488
  98.3623131  60.0148401 106.9916196  97.7026177  58.6650835 107.1782682
 109.4212341  57.2726473 102.8966321 108.9058964  58.0431078 103.1354708
 109.1489650  56.5991609 103.5199382 107.0059452  52.1176174 107.9551559
 106.1501048  51.7283025 107.7757198 107.4186404  52.1968135 107.0951345
 109.2098644  55.1453565 104.7226102 108.9048780  55.4599715 105.5736245
 110.1629086  55.2234985 104.7653435 107.6545076  61.3043789 106.3719056
 107.1266438  60.5696548 106.0592294 107.1532579  62.0818465 106.1259025
 102.3863804  51.9663455 108.7325668 102.9607556  51.7438637 107.9998861
 102.9734786  52.0352150 109.4854269 102.7133391  53.9967916 102.7521553
 101.8770703  54.3342603 103.0730828 102.5738160  53.8616896 101.8148690
 104.6886471  48.8404704 107.4600737 104.0350884  48.5253721 106.8357352
 104.6466946  48.2180444 108.1860560 105.7997676  59.1223999  99.3754029
 104.8924738  58.8913252  99.5745178 106.2968708  58.3261618  99.5628011
 108.7059260  56.7278053 106.9151065 109.4531078  57.2399450 106.6058187
 108.9750849  56.4062106 107.7755459 106.9785910  59.2236594 103.8978019
 106.0697129  58.9395627 103.9950489 107.0080993  59.6435672 103.0381326
  97.5474080  56.9442108 107.8793222  97.3498480  56.3511469 107.1544288
  96.9920744  56.6394318 108.5969160 106.6761997  60.7645338 101.2366098
 106.2381427  60.0481196 100.7771735 107.4172438  60.9921452 100.6751189
 103.4663164  55.4542274 107.7578194 102.6531029  55.7536445 108.1643386
 103.9622158  55.0597963 108.4752676 100.0420306  56.4706142 105.5634174
  99.1117894  56.4090597 105.7804136 100.1377778  55.9482095 104.7670815
  99.9605855  52.9960955 108.1512415 100.2212672  53.9106288 108.0421576
 100.7823027  52.5285397 108.3009028 110.7973225  59.6229719 100.8298155
 110.1802396  58.8976547 100.7331208 110.3289714  60.3839079 100.4865230
 102.5871771  53.8415143  99.9519460 101.7101237  53.7203944  99.5881706
 103.0629524  53.0501222  99.6998348  94.1073911  58.6292303 110.0460967
  94.7944951  58.3154033 109.4581982  93.9522040  59.5333668 109.7728218
  98.9108633  53.5182500 114.4745991  98.8266822  52.9108169 113.7396401
  98.0891340  54.0091518 114.4755487 105.6667316  54.1453446 109.5687870
 105.2965103  53.5924487 110.2568776 106.1626408  53.5411580 109.0162870
  93.6841887  56.7092897 112.3178434  93.7225987  56.1756487 113.1115552
  93.1782180  56.1828102 111.6989411  97.3150465  55.4356999 105.3932365
  97.6103906  54.5267677 105.3399419  96.4138501  55.4144738 105.0713368
 100.8444712  53.5112995 111.3759914 100.1231298  54.1248963 111.2367387
 101.6337968  54.0470760 111.2976560  99.0438306  53.1171096 105.5171691
  98.7151013  52.2368475 105.3346796  99.3977677  53.0618765 106.4048080
 102.1580130  53.4044066 105.8847168 102.4976202  53.9329987 105.1625777
 102.6052250  53.7424472 106.6605735 104.1448277  51.9018688 104.0840461
 104.8656639  52.2799941 103.5804178 103.5213581  52.6207565 104.1875439
 108.2879400  52.6063837 105.0198793 108.5043014  53.4888475 104.7187622
 107.8073467  52.2150050 104.2904435 104.2911900  51.4366478 106.9137998
 104.4127811  50.5083124 107.1128885 104.0013942  51.4505164 106.0016313
 103.2641959  63.0220611 105.0053885 103.4130079  63.7056075 104.3520557
 104.0708402  63.0025701 105.5203340 101.0194592  59.0485789 106.0114954
 100.7740634  58.1448119 106.2095164 101.1890506  59.0502939 105.0694432
 100.2890239  54.7814146 103.5101115  99.5959484  54.8558501 102.8541151
 100.0441991  54.0174490 104.0322632 106.7637364  65.5168741 102.4765632
 106.1911331  66.1358929 102.0236104 107.3370158  66.0668103 103.0105554
 112.6122641  65.1171762 100.5678162 112.5336272  64.7831625 101.4613920
 113.4332308  65.6093530 100.5669634 107.1484163  56.8529554  99.8181685
 108.0943268  56.7235762  99.8870103 106.7698408  56.1144216 100.2951113
 105.3327080  54.7779531  99.7536570 104.4258535  54.4812643  99.8299284
 105.6103061  54.4809349  98.8870856  96.2505020  56.0985894 110.2035616
  95.9307805  55.2451202 109.9109990  95.7038449  56.3134472 110.9593584
 106.9489146  49.3216420 105.9080811 106.1389874  48.9763505 106.2836057
 107.6373563  49.0123964 106.4968423 104.1025865  51.6366466  99.8948549
 104.9645029  51.9621364 100.1544366 104.2876209  50.8497962  99.3821615
  96.1193280  59.7188805 112.1728738  95.4256752  59.3042758 111.6598692
  96.8666271  59.7609342 111.5762157  98.0330023  59.6507059 110.0494753
  98.0100711  59.7494746 109.0976636  98.3430659  60.4972210 110.3711919
 110.1826593  62.4339757 100.1888140 110.8862443  62.6389760 100.8045796
 109.4589241  63.0016519 100.4537224 111.0124403  58.1849619 106.3090411
 110.9559604  58.6418170 105.4698043 111.5652745  57.4240303 106.1313253
 112.0913290  62.8722286 102.2386600 112.9258894  62.4403485 102.0564075
 111.9297633  62.7004300 103.1663495 111.7459182  59.3754400 103.6042940
 111.6907986  59.2098671 102.6631384 111.1205237  60.0830433 103.7605129
 105.0555308  48.8762509 103.1828258 105.0433977  49.8204349 103.3396529
 105.9478729  48.6932654 102.8887719  68.9536793   2.1676911  98.0082961
  69.1933392   2.7995435  98.6861980  68.1105990   1.8164951  98.2948321
  80.8692825   6.2141212  94.9845499  80.3057690   6.1231149  94.2161787
  80.7545220   5.3941116  95.4647992  78.4157257   7.7092403  97.8229720
  79.2078549   7.3683228  97.4076019  78.6553907   7.8187378  98.7431873
  86.4492384   9.8812179  90.2959964  85.7980363  10.4666260  89.9093978
  87.2436746  10.4118374  90.3555002  80.3748011   6.9701317  90.6947099
  81.1478887   6.4230304  90.5559974  80.7273410   7.8345566  90.9061560
  87.9267649   7.5702611  90.8328949  87.2913482   7.6437238  91.5449853
  87.5965055   8.1596210  90.1548028  77.9844231   4.0786185  97.7644285
  78.1136612   4.3320664  98.6783697  77.3041682   4.6713893  97.4448940
  82.1543718  14.7483435  93.8634759  82.0767748  15.6991260  93.9423240
  81.5505362  14.4029307  94.5209686  84.2519436   7.1701493  95.6988629
  84.7157782   7.4489196  94.9093251  83.9876234   6.2684937  95.5161719
  81.1443517   6.7172974  98.6368392  81.7144874   7.1460243  97.9985877
  81.7351629   6.4355559  99.3352578  84.4282087  10.1065588  92.5840299
  84.2927762  10.9517123  93.0125147  84.9691900  10.3084865  91.8206233
  77.8811484   7.6241026  93.1568224  78.3936005   8.4184276  93.3073789
  78.5334197   6.9267316  93.0901826  79.6906369  10.7406782  95.2390977
  79.8672997  11.6624747  95.0511961  80.4863203  10.4265201  95.6685357
  80.8137685  12.2584956 101.2401320  81.3645110  12.1302019 100.4678314
  79.9749161  12.5579845 100.8896212  75.8460401   5.9529680  93.9327795
  76.6835623   6.3626688  93.7161502  76.0238669   5.0129122  93.9027989
  85.9757568   7.6522076  93.0964363  85.4478930   6.9174836  92.7837600
  85.4745071   8.4296752  92.8504331  87.0278247  14.1799793  89.0196022
  86.3539946  14.4831490  89.6280980  87.4144069  14.9828874  88.6701479
  90.5317669   9.1821471  94.3914494  90.0779996   8.3412380  94.4479684
  89.9011636   9.8182869  94.7289274  88.9750609  11.0197967  95.3264312
  89.2673583  11.5803024  94.6076677  89.4849229  11.3126528  96.0817471
  84.9974490   7.1123625  87.9611405  84.5593920   6.3959484  87.5017042
  85.7384931   7.3399740  87.3996496  83.9384234  11.7978318  96.4157765
  83.8960413  12.0239165  95.4866297  84.8546933  11.5641693  96.5643566
  82.0550035   8.6741347  96.2119728  82.8490633   8.1791668  96.0102303
  81.3441727   8.1459211  95.8487433  86.8744879  11.0559443 100.5632095
  86.9281901  11.6250379 101.3309811  86.0059660  11.2261328 100.1986132
  84.6321311   9.2470369  99.8917565  84.4932396   8.8789154 100.7643503
  83.8435907   9.7618009  99.7201522  85.2269463  14.3479466  91.2343101
  85.4021218  13.8767509  92.0488724  84.5402251  14.9745232  91.4624362
  86.1826526   8.6251972  97.2806402  85.8476358   8.5852742  98.1764052
  85.6830471   7.9596688  96.8076813  79.7930548  17.4968829  98.0082961
  80.0327146  18.1287353  98.6861980  78.9499744  17.1456869  98.2948321
  72.4286403   4.9770590  96.7706274  73.1157443   4.6632320  96.1827289
  72.2734532   5.8811955  96.4973525  84.3058410  13.3047951 100.4124465
  84.2328581  14.1102923 100.9243770  83.8635803  13.5039917  99.5872487
  84.0948189  12.5419721  93.9227287  83.3115711  13.0841401  94.0165511
  84.7940935  13.0593701  94.3221528  86.7657093  13.2034785 102.5682624
  87.4785065  13.8382250 102.4958525  86.2747122  13.2998651 101.7522626
  81.8169007  10.9529229 103.3888195  82.5178466  11.5865712 103.5417589
  81.3464122  11.2943960 102.6283834  89.9423403   9.2947178  91.6736102
  90.2183246   9.1803773  92.5829976  89.0727901   8.8964663  91.6348275
  86.5777467  13.5433529  95.3168915  86.7599861  12.7255185  95.7796668
  87.4010453  13.7601221  94.8793805  86.9119632  12.4701714  92.5783964
  87.4407399  11.9594169  91.9654126  87.1747852  12.1544245  93.4429497
  77.4136725  10.4865584 100.3219298  77.9990162   9.7409272 100.4547202
  77.2161563  10.7969540 101.2055961  80.2675380  13.5216831  95.3381740
  79.5985755  14.0062959  94.8545780  80.1288250  13.7686051  96.2525118
  72.0054380   3.0571184  99.0423741  72.0438479   2.5234775  99.8360859
  71.4994672   2.5306389  98.4234718  84.4080649  15.5560575 101.9364398
  84.9598957  15.7192196 102.7013483  84.7486842  16.1465012 101.2644423
  87.5449036  13.5042550  98.9228080  87.4200175  12.7032290  98.4139026
  88.2028127  13.9988743  98.4342050  86.6130378  11.1004286  96.7511983
  86.4655340  10.1720994  96.9319553  87.4383871  11.1224377  96.2669058
  90.2164499  11.9232845  97.8376856  91.1411047  11.7175706  97.7001307
  90.0479803  11.6749246  98.7466197  90.0059816  12.4418513  93.1938947
  90.1796693  11.8764935  92.4412799  90.4988707  13.2419407  93.0118437
  75.8236775   4.4533182 101.2602506  75.2790244   5.2292990 101.3922780
  76.7016125   4.8003986 101.1021627  90.9934988  11.7585277  90.2935845
  91.6885893  12.3791970  90.5123160  91.3358138  10.9080628  90.5688223
  84.5767072  15.2756966  96.1818429  84.1372062  14.7833344  96.8751286
  85.3275189  14.7329933  95.9410504  77.0559411  11.4668507  96.1843057
  77.8817431  11.1672278  95.8041701  76.7053463  10.6976129  96.6332846
  82.0240944  10.8194975  98.2540731  81.4020953  10.1565680  97.9542959
  82.6945811  10.8456107  97.5714379  75.2568016   9.3854833  97.1431991
  74.4199924   8.9577007  96.9615992  75.2291661   9.5787276  98.0802782
  81.5854451   9.3698898  91.7299191  81.7342571  10.0534363  91.0765864
  82.3920895   9.3503988  92.2448647  79.3407084   5.3964076  92.7360260
  79.0953126   4.4926406  92.9340470  79.5102999   5.3981226  91.7939738
  85.0849857  11.8647029  89.2010939  84.5123824  12.4837216  88.7481411
  85.6582650  12.4146390  89.7350861  88.3047116  12.1484179  90.3319521
  89.2377790  12.0829740  90.5352397  88.2170329  12.9840446  89.8734054
  90.9335133  11.4650049  87.2923469  90.8548765  11.1309913  88.1859227
  91.7544800  11.9571817  87.2914941  78.3497420   5.1626622 100.6450429
  78.5683430   6.0943730 100.6638463  78.7623194   4.8034597 101.4305233
  74.4405773   6.0667093  98.8974045  73.7469244   5.6521045  98.3843999
  75.1878764   6.1087629  98.3007463  76.3542515   5.9985346  96.7740059
  76.3313203   6.0973034  95.8221943  76.6643152   6.8450497  97.0957226
  79.0129893   8.0561501 100.8886674  79.9673147   8.0245444 100.8216605
  78.8142417   7.5952125 101.7036900  79.6029275   6.6262618 103.4557471
  80.4222164   7.1206696 103.4792309  79.8766083   5.7094586 103.4275039
  77.3680122  13.5981121  97.9056872  77.2334590  12.8381522  97.3394870
  76.9512184  14.3222021  97.4385661  88.5039085   8.7818044  86.9133447
  89.2074935   8.9868047  87.5291103  87.7801734   9.3494806  87.1782531
  80.5249248  14.4950438  98.1175314  80.4081632  15.4395870  98.0154005
  79.7041694  14.1924000  98.5061114  90.4125782   9.2200574  88.9631907
  91.2471386   8.7881772  88.7809382  90.2510125   9.0482587  89.8908802
  81.5503762  15.1478700 101.3331243  82.4531009  15.1802310 101.6497738
  81.3241132  14.2179151 101.3477579  83.3057364  13.9009686  97.9941321
  82.3552995  13.9011548  97.8805694  83.6089850  13.1542421  97.4777356
  91.7086579  21.5433129  94.9845499  91.1451444  21.4523066  94.2161787
  91.5938974  20.7233034  95.4647992  89.2551011  23.0384321  97.8229720
  90.0472303  22.6975146  97.4076019  89.4947661  23.1479296  98.7431873
  97.2886138  25.2104097  90.2959964  96.6374118  25.7958177  89.9093978
  98.0830501  25.7410292  90.3555002  91.2141765  22.2993234  90.6947099
  91.9872641  21.7522221  90.5559974  91.5667164  23.1637483  90.9061560
  93.5508043  18.4585900  88.3265549  93.8033564  17.9367422  87.5649012
  92.6132602  18.2952046  88.4292232  98.7661403  22.8994529  90.8328949
  98.1307236  22.9729155  91.5449853  98.4358810  23.4888128  90.1548028
  93.2704332  20.3614006  90.5289924  93.1540590  19.6858910  91.1971008
  93.3806592  19.8746380  89.7122077  95.6135873  19.8224153  94.2336613
  95.2494080  19.2954774  94.9449534  96.4702989  19.4322622  94.0603098
  95.2541360  14.8514053  89.2297961  95.4215762  15.7194289  89.5968432
  95.0638529  15.0141335  88.3059251  91.4629174  19.7644829  96.9300496
  90.5379671  19.6321043  97.1378188  91.7113588  20.5439048  97.4270439
  95.2330581  17.3071711  90.2144628  95.1130206  17.7528761  91.0530108
  94.5383169  17.6557028  89.6558166  88.8237985  19.4078102  97.7644285
  88.9530367  19.6612581  98.6783697  88.1435437  20.0005810  97.4448940
  92.9937473  30.0775352  93.8634759  92.9161502  31.0283177  93.9423240
  92.3899116  29.7321225  94.5209686 100.9315647  17.7793184  91.0424962
 101.8433503  18.0120570  90.8672660 100.4225294  18.3630228  90.4800041
  95.0913191  22.4993410  95.6988629  95.5551536  22.7781113  94.9093251
  94.8269989  21.5976855  95.5161719  91.9837272  22.0464892  98.6368392
  92.5538629  22.4752160  97.9985877  92.5745384  21.7647477  99.3352578
  94.0282077  18.6216563  92.5078194  94.7306120  19.0737606  92.9752120
  93.6962705  17.9800382  93.1358087  87.7707411  16.8800115  97.8095327
  86.9806465  17.1357644  97.3335438  88.2618658  17.6948453  97.9147368
  89.7222156  17.2444695  94.7678804  88.9253320  17.3563389  95.2862300
  89.4947748  17.5831347  93.9019695  86.0545114  17.1330606 100.2410318
  86.3053152  18.0177616 100.5067894  86.5904662  16.9535207  99.4685410
  95.2675842  25.4357505  92.5840299  95.1321516  26.2809041  93.0125147
  95.8085654  25.6376783  91.8206233  88.7205239  22.9532943  93.1568224
  89.2329759  23.7476194  93.3073789  89.3727952  22.2559234  93.0901826
  90.5300124  26.0698700  95.2390977  90.7066752  26.9916664  95.0511961
  91.3256957  25.7557119  95.6685357  91.6531439  27.5876873 101.2401320
  92.2038864  27.4593937 100.4678314  90.8142915  27.8871762 100.8896212
  86.6854156  21.2821598  93.9327795  87.5229378  21.6918606  93.7161502
  86.8632423  20.3421040  93.9027989  98.5818588  18.9496678  89.6211628
  98.0665211  19.7201283  89.8600015  98.3095896  18.2761814  90.2444689
  96.1665699  13.7946379  94.6796866  95.3107295  13.4053229  94.5002505
  96.5792651  13.8738340  93.8196652 103.5552862  21.7029033  91.5564801
 102.7782305  21.3640192  91.1119963 104.2344343  21.7081656  90.8819766
  98.3704891  16.8223770  91.4471409  98.0655027  17.1369920  92.2981552
  99.3235333  16.9005190  91.4898742  96.8151323  22.9813994  93.0964363
  96.2872684  22.2466753  92.7837600  96.3138826  23.7588670  92.8504331
  91.5470050  13.6433660  95.4570974  92.1213802  13.4208841  94.7244167
  92.1341033  13.7122354  96.2099576  91.8739638  15.6738121  89.4766860
  91.0376950  16.0112808  89.7976134  91.7344407  15.5387101  88.5393997
  93.8492718  10.5174909  94.1846044  93.1957131  10.2023926  93.5602659
  93.8073192   9.8950649  94.9105867  94.9603923  20.7994204  86.0999336
  94.0530985  20.5683457  86.2990485  95.4574955  20.0031823  86.2873317
  97.8672002  29.5091711  89.0196022  97.1933701  29.8123408  89.6280980
  98.2537824  30.3120791  88.6701479  97.8665506  18.4048258  93.6396372
  98.6137325  18.9169655  93.3303494  98.1357096  18.0832311  94.5000765
  96.1392156  20.9006799  90.6223326  95.2303376  20.6165832  90.7195796
  96.1687240  21.3205877  89.7626633 101.3711424  24.5113388  94.3914494
 100.9173751  23.6704298  94.4479684 100.7405391  25.1474787  94.7289274
  99.8144363  26.3489885  95.3264312 100.1067337  26.9094942  94.6076677
 100.3242984  26.6418446  96.0817471  86.7080327  18.6212313  94.6038528
  86.5104727  18.0281674  93.8789595  86.1526991  18.3164523  95.3214467
  94.6877050  18.5135419  96.7233121  94.7425660  17.5609256  96.6475598
  93.8768253  18.6694858  97.2074420  95.8368244  22.4415542  87.9611405
  95.3987674  21.7251401  87.5017042  96.5778685  22.6691657  87.3996496
  92.6269410  17.1312479  94.4823500  91.8137276  17.4306650  94.8888692
  93.1228405  16.7368168  95.1997982  94.7777988  27.1270236  96.4157765
  94.7354167  27.3531082  95.4866297  95.6940687  26.8933611  96.5643566
  92.8943789  24.0033265  96.2119728  93.6884388  23.5083585  96.0102303
  92.1835481  23.4751128  95.8487433  97.7138634  26.3851361 100.5632095
  97.7675656  26.9542297 101.3309811  96.8453415  26.5553246 100.1986132
  89.2026553  18.1476347  92.2879480  88.2724141  18.0860802  92.5049442
  89.2984025  17.6252300  91.4916122  89.1212102  14.6731160  94.8757722
  89.3818919  15.5876493  94.7666882  89.9429274  14.2055602  95.0254335
  95.4715065  24.5762287  99.8917565  95.3326151  24.2081071 100.7643503
  94.6829661  25.0909926  99.7201522  96.0663217  29.6771384  91.2343101
  96.2414973  29.2059427  92.0488724  95.3796005  30.3037150  91.4624362
  97.0220280  23.9543890  97.2806402  96.6870113  23.9144660  98.1764052
  96.5224226  23.2888606  96.8076813  99.9579472  21.2999924  87.5543462
  99.3408643  20.5746752  87.4576515  99.4895960  22.0609284  87.2110536
  90.6324302  32.8260746  98.0082961  90.8720901  33.4579270  98.6861980
  89.7893499  32.4748786  98.2948321  91.7478018  15.5185348  86.6764766
  90.8707484  15.3974149  86.3127013  92.2235771  14.7271427  86.4243655
  83.2680158  20.3062508  96.7706274  83.9551198  19.9924238  96.1827289
  83.1128287  21.2103873  96.4973525  88.0714880  15.1952705 101.1991297
  87.9873069  14.5878374 100.4641707  87.2497586  15.6861723 101.2000794
  95.1452164  28.6339869 100.4124465  95.0722336  29.4394840 100.9243770
  94.7029557  28.8331835  99.5872487  94.9341944  27.8711639  93.9227287
  94.1509466  28.4133319  94.0165511  95.6334689  28.3885618  94.3221528
  97.6050848  28.5326703 102.5682624  98.3178820  29.1674168 102.4958525
  97.1140876  28.6290569 101.7522626  99.3268375  22.4377955  94.1399916
  98.3924653  22.5579418  93.9704620  99.5045043  21.5350422  93.8759926
  94.8273563  15.8223651  96.2933177  94.4571350  15.2694692  96.9814082
  95.3232655  15.2181785  95.7408177  92.6562761  26.2821146 103.3888195
  93.3572221  26.9157629 103.5417589  92.1857876  26.6235878 102.6283834
 100.7817157  24.6239096  91.6736102 101.0577001  24.5095691  92.5829976
  99.9121656  24.2256581  91.6348275  97.4171221  28.8725447  95.3168915
  97.5993616  28.0547103  95.7796668  98.2404207  29.0893139  94.8793805
  97.7513387  27.7993632  92.5783964  98.2801153  27.2886087  91.9654126
  98.0141606  27.4836162  93.4429497  88.2530479  25.8157501 100.3219298
  88.8383916  25.0701189 100.4547202  88.0555318  26.1261458 101.2055961
  91.1069135  28.8508749  95.3381740  90.4379510  29.3354876  94.8545780
  90.9682004  29.0977969  96.2525118  82.8448134  18.3863102  99.0423741
  82.8832234  17.8526692  99.8360859  82.3388427  17.8598307  98.4234718
  95.2474403  30.8852492 101.9364398  95.7992711  31.0484114 102.7013483
  95.5880597  31.4756930 101.2644423  86.4756712  17.1127204  92.1177672
  86.7710153  16.2037882  92.0644726  85.5744747  17.0914943  91.7958674
  98.3842790  28.8334468  98.9228080  98.2593930  28.0324208  98.4139026
  99.0421882  29.3280661  98.4342050  90.0050959  15.1883200  98.1005221
  89.2837544  15.8019168  97.9612694  90.7944214  15.7240965  98.0221867
  88.2044553  14.7941301  92.2416997  87.8757259  13.9138680  92.0592103
  88.5583924  14.7388970  93.1293386  97.4524132  26.4296204  96.7511983
  97.3049095  25.5012911  96.9319553  98.2777626  26.4516295  96.2669058
  91.3186376  15.0814271  92.6092475  91.6582449  15.6100192  91.8871083
  91.7658497  15.4194677  93.3851041 101.0558254  27.2524763  97.8376856
 101.9804801  27.0467624  97.7001307 100.8873557  27.0041164  98.7466197
  93.3054524  13.5788893  90.8085768  94.0262886  13.9570145  90.3049485
  92.6819828  14.2977770  90.9120746  97.4485646  14.2834042  91.7444100
  97.6649261  15.1658680  91.4432928  96.9679714  13.8920255  91.0149742
  92.1884868  17.2419755  98.3214845  92.0429448  17.5560058  99.2139126
  91.7110071  17.8604655  97.7685743 100.8453570  27.7710430  93.1938947
 101.0190448  27.2056853  92.4412799 101.3382461  28.5711325  93.0118437
  86.6630530  19.7825099 101.2602506  86.1183998  20.5584907 101.3922780
  87.5409880  20.1295904 101.1021627  93.4518147  13.1136683  93.6383304
  93.5734058  12.1853329  93.8374192  93.1620189  13.1275369  92.7261620
 101.8328743  27.0877195  90.2935845 102.5279647  27.7083887  90.5123160
 102.1751893  26.2372546  90.5688223  87.4496552  18.9094996 104.1532663
  86.7078288  19.0577631 104.7397293  87.1289296  19.1703261 103.2899412
 103.7320166  24.5376900  91.8223176 104.2571490  24.8764173  91.0972496
 103.6442518  23.6023915  91.6386311  95.4160826  30.6048883  96.1818429
  94.9765817  30.1125262  96.8751286  96.1668943  30.0621851  95.9410504
  87.8953165  26.7960424  96.1843057  88.7211185  26.4964196  95.8041701
  87.5447217  26.0268047  96.6332846  92.8634699  26.1486893  98.2540731
  92.2414708  25.4857598  97.9542959  93.5339566  26.1748024  97.5714379
  86.0961771  24.7146751  97.1431991  85.2593679  24.2868925  96.9615992
  86.0685416  24.9079194  98.0802782  92.4248206  24.6990816  91.7299191
  92.5736326  25.3826280  91.0765864  93.2314649  24.6795906  92.2448647
  90.1800839  20.7255993  92.7360260  89.9346880  19.8218323  92.9340470
  90.3496753  20.7273144  91.7939738  89.4496486  16.4584351  90.2346422
  88.7565731  16.5328706  89.5786458  89.2048238  15.6944695  90.7567939
  95.9243611  27.1938946  89.2010939  95.3517578  27.8129133  88.7481411
  96.4976405  27.7438308  89.7350861  99.1440871  27.4776096  90.3319521
 100.0771544  27.4121658  90.5352397  99.0564084  28.3132363  89.8734054
 101.7728888  26.7941967  87.2923469 101.6942519  26.4601830  88.1859227
 102.5938554  27.2863735  87.2914941  96.3090410  18.5299759  86.5426991
  97.2549514  18.4005967  86.6115409  95.9304655  17.7914421  87.0196419
  94.4933327  16.4549735  86.4781877  93.5864782  16.1582848  86.5544590
  94.7709308  16.1579554  85.6116163  85.4111267  17.7756099  96.9280923
  85.0914051  16.9221407  96.6355297  84.8644695  17.9904677  97.6838890
  89.1891175  20.4918540 100.6450429  89.4077184  21.4235648 100.6638463
  89.6016948  20.1326514 101.4305233  96.1095392  10.9986625  92.6326118
  95.2996121  10.6533710  93.0081364  96.7979809  10.6894169  93.2213729
  93.2632111  13.3136671  86.6193856  94.1251275  13.6391569  86.8789673
  93.4482456  12.5268167  86.1066922  85.2799527  21.3959010  98.8974045
  84.5862999  20.9812963  98.3843999  86.0272518  21.4379547  98.3007463
  87.1936270  21.3277264  96.7740059  87.1706958  21.4264951  95.8221943
  87.5036906  22.1742415  97.0957226  89.8523648  23.3853419 100.8886674
  90.8066901  23.3537361 100.8216605  89.6536171  22.9244043 101.7036900
  90.4423030  21.9554535 103.4557471  91.2615919  22.4498614 103.4792309
  90.7159837  21.0386503 103.4275039  88.2073876  28.9273039  97.9056872
  88.0728344  28.1673440  97.3394870  87.7905939  29.6513938  97.4385661
  99.3432839  24.1109962  86.9133447 100.0468689  24.3159965  87.5291103
  98.6195488  24.6786724  87.1782531 100.1730650  19.8619823  93.0335717
 100.1165851  20.3188375  92.1943350 100.7258992  19.1010508  92.8558560
  91.3643002  29.8242356  98.1175314  91.2475386  30.7687788  98.0154005
  90.5435448  29.5215917  98.5061114 101.2519537  24.5492491  88.9631907
 102.0865141  24.1173690  88.7809382 101.0903880  24.3774505  89.8908802
 100.9065429  21.0524605  90.3288246 100.8514233  20.8868876  89.3876690
 100.2811484  21.7600638  90.4850436  85.6957944  16.2892669 104.1549669
  86.3416807  15.7791623 104.6436894  85.4875095  17.0261351 104.7293094
  94.2161554  10.5532714  89.9073565  94.2040224  11.4974554  90.0641836
  95.1084976  10.3702859  89.6133026  92.3897516  30.4770618 101.3331243
  93.2924763  30.5094228 101.6497738  92.1634886  29.5471069 101.3477579
  94.1451118  29.2301604  97.9941321  93.1946749  29.2303466  97.8805694
  94.4483604  28.4834339  97.4777356 102.5480334  36.8725047  94.9845499
 101.9845199  36.7814984  94.2161787 102.4332729  36.0524951  95.4647992
 100.0944766  38.3676239  97.8229720 100.8866058  38.0267063  97.4076019
 100.3341416  38.4771214  98.7431873 108.1279893  40.5396015  90.2959964
 107.4767872  41.1250095  89.9093978 108.9224255  41.0702210  90.3555002
 102.0535520  37.6285152  90.6947099 102.8266396  37.0814139  90.5559974
 102.4060919  38.4929401  90.9061560 104.3901797  33.7877818  88.3265549
 104.6427318  33.2659339  87.5649012 103.4526357  33.6243963  88.4292232
 109.6055158  38.2286447  90.8328949 108.9700991  38.3021073  91.5449853
 109.2752564  38.8180045  90.1548028 104.1098086  35.6905924  90.5289924
 103.9934344  35.0150827  91.1971008 104.2200346  35.2038298  89.7122077
 106.4529627  35.1516071  94.2336613 106.0887834  34.6246692  94.9449534
 107.3096743  34.7614540  94.0603098 106.0935114  30.1805971  89.2297961
 106.2609516  31.0486207  89.5968432 105.9032283  30.3433252  88.3059251
 102.3022929  35.0936746  96.9300496 101.3773425  34.9612961  97.1378188
 102.5507342  35.8730966  97.4270439 106.0724335  32.6363628  90.2144628
 105.9523960  33.0820679  91.0530108 105.3776923  32.9848946  89.6558166
  99.6631740  34.7370020  97.7644285  99.7924121  34.9904499  98.6783697
  98.9829191  35.3297728  97.4448940 103.8331227  45.4067270  93.8634759
 103.7555257  46.3575095  93.9423240 103.2292871  45.0613142  94.5209686
 111.7709401  33.1085101  91.0424962 112.6827257  33.3412488  90.8672660
 111.2619048  33.6922146  90.4800041 105.9306945  37.8285328  95.6988629
 106.3945291  38.1073031  94.9093251 105.6663743  36.9268773  95.5161719
 102.8231026  37.3756809  98.6368392 103.3932383  37.8044078  97.9985877
 103.4139138  37.0939394  99.3352578 104.8675831  33.9508480  92.5078194
 105.5699875  34.4029524  92.9752120 104.5356460  33.3092299  93.1358087
  98.6101165  32.2092033  97.8095327  97.8200219  32.4649562  97.3335438
  99.1012413  33.0240371  97.9147368 100.5615911  32.5736612  94.7678804
  99.7647074  32.6855306  95.2862300 100.3341503  32.9123264  93.9019695
  96.8938868  32.4622523 100.2410318  97.1446907  33.3469533 100.5067894
  97.4298417  32.2827125  99.4685410 106.1069596  40.7649423  92.5840299
 105.9715271  41.6100959  93.0125147 106.6479409  40.9668701  91.8206233
  99.5598993  38.2824861  93.1568224 100.0723514  39.0768111  93.3073789
 100.2121706  37.5851151  93.0901826 101.3693878  41.3990617  95.2390977
 101.5460506  42.3208582  95.0511961 102.1650712  41.0849036  95.6685357
 102.4925194  42.9168791 101.2401320 103.0432619  42.7885854 100.4678314
 101.6536669  43.2163680 100.8896212  97.5247910  36.6113515  93.9327795
  98.3623132  37.0210524  93.7161502  97.7026178  35.6712957  93.9027989
 109.4212342  34.2788596  89.6211628 108.9058966  35.0493201  89.8600015
 109.1489651  33.6053732  90.2444689 107.0059453  29.1238297  94.6796866
 106.1501050  28.7345147  94.5002505 107.4186405  29.2030258  93.8196652
 114.3946616  37.0320951  91.5564801 113.6176059  36.6932110  91.1119963
 115.0738097  37.0373574  90.8819766 109.2098645  32.1515688  91.4471409
 108.9048781  32.4661837  92.2981552 110.1629088  32.2297108  91.4898742
 107.6545077  38.3105911  93.0964363 107.1266439  37.5758671  92.7837600
 107.1532580  39.0880588  92.8504331 102.3863805  28.9725578  95.4570974
 102.9607557  28.7500759  94.7244167 102.9734787  29.0414272  96.2099576
 102.7133392  31.0030039  89.4766860 101.8770704  31.3404725  89.7976134
 102.5738162  30.8679018  88.5393997 104.6886473  25.8466827  94.1846044
 104.0350885  25.5315844  93.5602659 104.6466947  25.2242567  94.9105867
 105.7997678  36.1286122  86.0999336 104.8924739  35.8975375  86.2990485
 106.2968709  35.3323741  86.2873317 108.7065756  44.8383629  89.0196022
 108.0327455  45.1415326  89.6280980 109.0931578  45.6412709  88.6701479
 108.7059261  33.7340176  93.6396372 109.4531080  34.2461573  93.3303494
 108.9750850  33.4124228  94.5000765 106.9785911  36.2298716  90.6223326
 106.0697130  35.9457749  90.7195796 107.0080995  36.6497795  89.7626633
 112.2105178  39.8405306  94.3914494 111.7567505  38.9996216  94.4479684
 111.5799145  40.4766704  94.7289274 110.6538118  41.6781803  95.3264312
 110.9461092  42.2386860  94.6076677 111.1636738  41.9710364  96.0817471
  97.5474081  33.9504231  94.6038528  97.3498481  33.3573591  93.8789595
  96.9920745  33.6456441  95.3214467 105.5270805  33.8427337  96.7233121
 105.5819415  32.8901173  96.6475598 104.7162007  33.9986776  97.2074420
 106.6761999  37.7707460  87.9611405 106.2381429  37.0543319  87.5017042
 107.4172440  37.9983575  87.3996496 103.4663165  32.4604397  94.4823500
 102.6531030  32.7598567  94.8888692 103.9622159  32.0660086  95.1997982
 105.6171743  42.4562154  96.4157765 105.5747922  42.6823000  95.4866297
 106.5334442  42.2225528  96.5643566 103.7337544  39.3325183  96.2119728
 104.5278142  38.8375503  96.0102303 103.0229236  38.8043046  95.8487433
 108.5532388  41.7143278 100.5632095 108.6069410  42.2834215 101.3309811
 107.6847169  41.8845163 100.1986132 100.0420307  33.4768264  92.2879480
  99.1117895  33.4152720  92.5049442 100.1377779  32.9544217  91.4916122
  99.9605856  30.0023077  94.8757722 100.2212673  30.9168411  94.7666882
 100.7823028  29.5347520  95.0254335 106.3108820  39.9054205  99.8917565
 106.1719905  39.5372989 100.7643503 105.5223416  40.4201844  99.7201522
 106.9056972  45.0063301  91.2343101 107.0808727  44.5351344  92.0488724
 106.2189760  45.6329067  91.4624362 107.8614035  39.2835807  97.2806402
 107.5263867  39.2436577  98.1764052 107.3617980  38.6180523  96.8076813
 110.7973226  36.6291842  87.5543462 110.1802397  35.9038670  87.4576515
 110.3289715  37.3901202  87.2110536 101.4718057  48.1552664  98.0082961
 101.7114655  48.7871188  98.6861980 100.6287253  47.8040704  98.2948321
 102.5871772  30.8477266  86.6764766 101.7101239  30.7266067  86.3127013
 103.0629525  30.0563344  86.4243655  94.1073912  35.6354426  96.7706274
  94.7944952  35.3216156  96.1827289  93.9522041  36.5395790  96.4973525
  98.9108635  30.5244622 101.1991297  98.8266823  29.9170292 100.4641707
  98.0891341  31.0153641 101.2000794 105.9845919  43.9631786 100.4124465
 105.9116090  44.7686758 100.9243770 105.5423312  44.1623752  99.5872487
 105.7735698  43.2003556  93.9227287 104.9903220  43.7425237  94.0165511
 106.4728443  43.7177536  94.3221528 108.4444602  43.8618620 102.5682624
 109.1572574  44.4966085 102.4958525 107.9534631  43.9582486 101.7522626
 110.1662129  37.7669873  94.1399916 109.2318408  37.8871336  93.9704620
 110.3438798  36.8642340  93.8759926 105.6667317  31.1515569  96.2933177
 105.2965105  30.5986609  96.9814082 106.1626410  30.5473702  95.7408177
 103.4956516  41.6113064 103.3888195 104.1965975  42.2449547 103.5417589
 103.0251631  41.9527795 102.6283834 111.6210912  39.9531014  91.6736102
 111.8970755  39.8387608  92.5829976 110.7515410  39.5548499  91.6348275
 108.2564976  44.2017365  95.3168915 108.4387370  43.3839020  95.7796668
 109.0797962  44.4185057  94.8793805 108.5907141  43.1285550  92.5783964
 109.1194908  42.6178004  91.9654126 108.8535361  42.8128080  93.4429497
  99.0924234  41.1449419 100.3219298  99.6777671  40.3993107 100.4547202
  98.8949072  41.4553376 101.2055961 101.9462889  44.1800666  95.3381740
 101.2773264  44.6646794  94.8545780 101.8075759  44.4269887  96.2525118
  93.6841889  33.7155019  99.0423741  93.7225988  33.1818610  99.8360859
  93.1782181  33.1890225  98.4234718 106.0868158  46.2144410 101.9364398
 106.6386466  46.3776031 102.7013483 106.4274351  46.8048848 101.2644423
  97.3150466  32.4419121  92.1177672  97.6103907  31.5329800  92.0644726
  96.4138502  32.4206861  91.7958674 109.2236545  44.1626385  98.9228080
 109.0987684  43.3616125  98.4139026 109.8815636  44.6572579  98.4342050
 100.8444713  30.5175118  98.1005221 100.1231299  31.1311086  97.9612694
 101.6337969  31.0532883  98.0221867  99.0438308  30.1233219  92.2416997
  98.7151014  29.2430598  92.0592103  99.3977678  30.0680888  93.1293386
 108.2917887  41.7588122  96.7511983 108.1442849  40.8304829  96.9319553
 109.1171380  41.7808212  96.2669058 102.1580131  30.4106189  92.6092475
 102.4976203  30.9392110  91.8871083 102.6052251  30.7486595  93.3851041
 111.8952008  42.5816680  97.8376856 112.8198556  42.3759542  97.7001307
 111.7267312  42.3333082  98.7466197 104.1448278  28.9080810  90.8085768
 104.8656640  29.2862063  90.3049485 103.5213582  29.6269687  90.9120746
 108.2879401  29.6125959  91.7444100 108.5043015  30.4950597  91.4432928
 107.8073468  29.2212173  91.0149742 103.0278622  32.5711673  98.3214845
 102.8823203  32.8851976  99.2139126 102.5503826  33.1896573  97.7685743
 111.6847325  43.1002348  93.1938947 111.8584202  42.5348770  92.4412799
 112.1776216  43.9003243  93.0118437  97.5024284  35.1117017 101.2602506
  96.9577753  35.8876825 101.3922780  98.3803634  35.4587821 101.1021627
 104.2911901  28.4428601  93.6383304 104.4127812  27.5145247  93.8374192
 104.0013943  28.4567287  92.7261620 112.6722497  42.4169112  90.2935845
 113.3673402  43.0375805  90.5123160 113.0145647  41.5664464  90.5688223
  98.2890306  34.2386913 104.1532663  97.5472042  34.3869549 104.7397293
  97.9683051  34.4995179 103.2899412 114.5713920  39.8668818  91.8223176
 115.0965244  40.2056091  91.0972496 114.4836273  38.9315833  91.6386311
 106.2554581  45.9340801  96.1818429 105.8159571  45.4417180  96.8751286
 107.0062698  45.3913769  95.9410504  98.7346920  42.1252342  96.1843057
  99.5604940  41.8256114  95.8041701  98.3840972  41.3559964  96.6332846
 103.7028453  41.4778810  98.2540731 103.0808462  40.8149515  97.9542959
 104.3733320  41.5039942  97.5714379  96.9355525  40.0438668  97.1431991
  96.0987433  39.6160843  96.9615992  96.9079170  40.2371112  98.0802782
 103.2641960  40.0282734  91.7299191 103.4130080  40.7118198  91.0765864
 104.0708403  40.0087824  92.2448647 101.0194593  36.0547911  92.7360260
 100.7740635  35.1510241  92.9340470 101.1890508  36.0565062  91.7939738
 100.2890241  31.7876269  90.2346422  99.5959485  31.8620624  89.5786458
 100.0441992  31.0236612  90.7567939 106.7637366  42.5230864  89.2010939
 106.1911333  43.1421051  88.7481411 107.3370159  43.0730226  89.7350861
 109.9834625  42.8068014  90.3319521 110.9165299  42.7413576  90.5352397
 109.8957838  43.6424281  89.8734054 112.6122642  42.1233884  87.2923469
 112.5336274  41.7893748  88.1859227 113.4332309  42.6155652  87.2914941
 107.1484164  33.8591677  86.5426991 108.0943269  33.7297885  86.6115409
 106.7698409  33.1206339  87.0196419 105.3327081  31.7841653  86.4781877
 104.4258537  31.4874766  86.5544590 105.6103062  31.4871471  85.6116163
  96.2505022  33.1048017  96.9280923  95.9307806  32.2513325  96.6355297
  95.7038450  33.3196595  97.6838890 100.0284929  35.8210458 100.6450429
 100.2470939  36.7527565 100.6638463 100.4410703  35.4618432 101.4305233
 106.9489147  26.3278543  92.6326118 106.1389875  25.9825628  93.0081364
 107.6373564  26.0186087  93.2213729 104.1025866  28.6428588  86.6193856
 104.9645030  28.9683487  86.8789673 104.2876210  27.8560084  86.1066922
  96.1193282  36.7250928  98.8974045  95.4256753  36.3104881  98.3843999
  96.8666273  36.7671465  98.3007463  98.0330024  36.6569182  96.7740059
  98.0100712  36.7556869  95.8221943  98.3430661  37.5034333  97.0957226
 100.6917402  38.7145337 100.8886674 101.6460656  38.6829279 100.8216605
 100.4929926  38.2535961 101.7036900 101.2816784  37.2846453 103.4557471
 102.1009673  37.7790532 103.4792309 101.5553592  36.3678421 103.4275039
  99.0467631  44.2564956  97.9056872  98.9122099  43.4965357  97.3394870
  98.6299693  44.9805856  97.4385661 110.1826594  39.4401880  86.9133447
 110.8862444  39.6451882  87.5291103 109.4589243  40.0078642  87.1782531
 111.0124404  35.1911741  93.0335717 110.9559605  35.6480293  92.1943350
 111.5652747  34.4302426  92.8558560 102.2036757  45.1534273  98.1175314
 102.0869141  46.0979706  98.0154005 101.3829203  44.8507835  98.5061114
 112.0913291  39.8784409  88.9631907 112.9258895  39.4465608  88.7809382
 111.9297634  39.7066423  89.8908802 111.7459183  36.3816522  90.3288246
 111.6907987  36.2160794  89.3876690 111.1205239  37.0892555  90.4850436
  96.5351698  31.6184587 104.1549669  97.1810562  31.1083541 104.6436894
  96.3268849  32.3553268 104.7293094 105.0555309  25.8824631  89.9073565
 105.0433979  26.8266471  90.0641836 105.9478731  25.6994777  89.6133026
 103.2291271  45.8062535 101.3331243 104.1318518  45.8386145 101.6497738
 103.0028641  44.8762986 101.3477579 104.9844873  44.5593522  97.9941321
 104.0340504  44.5595383  97.8805694 105.2877359  43.8126256  97.4777356
 113.3874088  52.2016965  94.9845499 112.8238953  52.1106902  94.2161787
 113.2726483  51.3816869  95.4647992 110.9338520  53.6968156  97.8229720
 111.7259812  53.3558981  97.4076019 111.1735170  53.8063131  98.7431873
 112.8929274  52.9577070  90.6947099 113.6660150  52.4106057  90.5559974
 113.2454673  53.8221319  90.9061560 115.2295552  49.1169736  88.3265549
 115.4821073  48.5951257  87.5649012 114.2920111  48.9535881  88.4292232
 114.9491841  51.0197842  90.5289924 114.8328099  50.3442745  91.1971008
 115.0594101  50.5330216  89.7122077 113.1416683  50.4228664  96.9300496
 112.2167180  50.2904878  97.1378188 113.3901096  51.2022883  97.4270439
 110.5025494  50.0661938  97.7644285 110.6317875  50.3196417  98.6783697
 109.8222946  50.6589646  97.4448940 114.6724982  60.7359188  93.8634759
 114.5949011  61.6867013  93.9423240 114.0686625  60.3905060  94.5209686
 113.6624781  52.7048727  98.6368392 114.2326138  53.1335996  97.9985877
 114.2532893  52.4231312  99.3352578 109.4494920  47.5383951  97.8095327
 108.6593974  47.7941479  97.3335438 109.9406167  48.3532289  97.9147368
 111.4009665  47.9028530  94.7678804 110.6040829  48.0147224  95.2862300
 111.1735257  48.2415182  93.9019695 107.7332623  47.7914441 100.2410318
 107.9840661  48.6761451 100.5067894 108.2692171  47.6119043  99.4685410
 110.3992748  53.6116779  93.1568224 110.9117268  54.4060029  93.3073789
 111.0515461  52.9143069  93.0901826 112.2087633  56.7282535  95.2390977
 112.3854261  57.6500500  95.0511961 113.0044466  56.4140954  95.6685357
 113.3318948  58.2460709 101.2401320 113.8826373  58.1177772 100.4678314
 112.4930424  58.5455598 100.8896212 108.3641665  51.9405433  93.9327795
 109.2016887  52.3502441  93.7161502 108.5419932  51.0004875  93.9027989
 113.2257559  44.3017495  95.4570974 113.8001311  44.0792677  94.7244167
 113.8128542  44.3706190  96.2099576 113.5527147  46.3321956  89.4766860
 112.7164459  46.6696643  89.7976134 113.4131916  46.1970936  88.5393997
 115.5280227  41.1758744  94.1846044 114.8744639  40.8607761  93.5602659
 115.4860701  40.5534485  94.9105867 108.3867836  49.2796148  94.6038528
 108.1892236  48.6865509  93.8789595 107.8314500  48.9748358  95.3214467
 114.3056919  47.7896314  94.4823500 113.4924785  48.0890485  94.8888692
 114.8015914  47.3952003  95.1997982 114.5731298  54.6617100  96.2119728
 115.3671897  54.1667421  96.0102303 113.8622990  54.1334964  95.8487433
 110.8814062  48.8060182  92.2879480 109.9511650  48.7444638  92.5049442
 110.9771534  48.2836135  91.4916122 110.7999611  45.3314995  94.8757722
 111.0606428  46.2460328  94.7666882 111.6216783  44.8639438  95.0254335
 112.3111811  63.4844582  98.0082961 112.5508410  64.1163106  98.6861980
 111.4681008  63.1332622  98.2948321 113.4265527  46.1769184  86.6764766
 112.5494993  46.0557985  86.3127013 113.9023280  45.3855262  86.4243655
 104.9467667  50.9646343  96.7706274 105.6338707  50.6508074  96.1827289
 104.7915796  51.8687708  96.4973525 109.7502389  45.8536540 101.1991297
 109.6660578  45.2462210 100.4641707 108.9285095  46.3445558 101.2000794
 114.3350270  56.9404982 103.3888195 115.0359730  57.5741465 103.5417589
 113.8645385  57.2819713 102.6283834 109.9317988  56.4741337 100.3219298
 110.5171425  55.7285025 100.4547202 109.7342827  56.7845293 101.2055961
 112.7856644  59.5092584  95.3381740 112.1167019  59.9938712  94.8545780
 112.6469513  59.7561804  96.2525118 104.5235643  49.0446937  99.0423741
 104.5619743  48.5110528  99.8360859 104.0175936  48.5182142  98.4234718
 108.1544221  47.7711039  92.1177672 108.4497662  46.8621717  92.0644726
 107.2532256  47.7498778  91.7958674 111.6838468  45.8467036  98.1005221
 110.9625053  46.4603003  97.9612694 112.4731723  46.3824800  98.0221867
 109.8832062  45.4525137  92.2416997 109.5544768  44.5722516  92.0592103
 110.2371433  45.3972805  93.1293386 112.9973885  45.7398106  92.6092475
 113.3369958  46.2684028  91.8871083 113.4446006  46.0778513  93.3851041
 114.9842032  44.2372728  90.8085768 115.7050395  44.6153981  90.3049485
 114.3607337  44.9561605  90.9120746 113.8672377  47.9003590  98.3214845
 113.7216957  48.2143893  99.2139126 113.3897580  48.5188491  97.7685743
 108.3418039  50.4408935 101.2602506 107.7971507  51.2168743 101.3922780
 109.2197389  50.7879739 101.1021627 115.1305656  43.7720519  93.6383304
 115.2521567  42.8437165  93.8374192 114.8407698  43.7859204  92.7261620
 109.1284061  49.5678831 104.1532663 108.3865797  49.7161466 104.7397293
 108.8076805  49.8287097 103.2899412 109.5740674  57.4544260  96.1843057
 110.3998694  57.1548032  95.8041701 109.2234726  56.6851882  96.6332846
 114.5422208  56.8070728  98.2540731 113.9202217  56.1441433  97.9542959
 115.2127075  56.8331860  97.5714379 107.7749280  55.3730586  97.1431991
 106.9381188  54.9452760  96.9615992 107.7472925  55.5663029  98.0802782
 114.1035715  55.3574651  91.7299191 114.2523835  56.0410116  91.0765864
 114.9102158  55.3379741  92.2448647 111.8588348  51.3839829  92.7360260
 111.6134389  50.4802159  92.9340470 112.0284262  51.3856979  91.7939738
 111.1283995  47.1168186  90.2346422 110.4353240  47.1912541  89.5786458
 110.8835747  46.3528530  90.7567939 107.0898776  48.4339934  96.9280923
 106.7701560  47.5805242  96.6355297 106.5432204  48.6488512  97.6838890
 110.8678684  51.1502375 100.6450429 111.0864693  52.0819483 100.6638463
 111.2804457  50.7910350 101.4305233 114.9419620  43.9720506  86.6193856
 115.8038784  44.2975404  86.8789673 115.1269964  43.1852002  86.1066922
 106.9587036  52.0542846  98.8974045 106.2650508  51.6396798  98.3843999
 107.7060027  52.0963382  98.3007463 108.8723779  51.9861099  96.7740059
 108.8494467  52.0848787  95.8221943 109.1824415  52.8326250  97.0957226
 111.5311156  54.0437254 100.8886674 112.4854410  54.0121197 100.8216605
 111.3323680  53.5827878 101.7036900 112.1210539  52.6138371 103.4557471
 112.9403428  53.1082449 103.4792309 112.3947346  51.6970339 103.4275039
 109.8861385  59.5856874  97.9056872 109.7515853  58.8257275  97.3394870
 109.4693448  60.3097774  97.4385661 113.0430511  60.4826191  98.1175314
 112.9262895  61.4271623  98.0154005 112.2222957  60.1799753  98.5061114
 107.3745453  46.9476504 104.1549669 108.0204316  46.4375458 104.6436894
 107.1662604  47.6845186 104.7293094 114.0685025  61.1354453 101.3331243
 114.9712272  61.1678063 101.6497738 113.8422395  60.2054904 101.3477579
 115.3629398  64.3738855  99.0423741 115.4013497  63.8402445  99.8360859
 114.8569690  63.8474060  98.4234718  90.6324304   9.8322869  84.7328268
  90.8720902  10.4641393  85.4107287  89.7893500   9.4810909  85.0193627
 102.5480335  13.8787170  81.7090806 101.9845200  13.7877107  80.9407094
 102.4332730  13.0587074  82.1893299 100.0944767  15.3738361  84.5475027
 100.8866059  15.0329186  84.1321326 100.3341417  15.4833336  85.4677180
 108.1279894  17.5458137  77.0205271 107.4767874  18.1312218  76.6339285
 108.9224257  18.0764332  77.0800308 102.0535521  14.6347274  77.4192405
 102.8266397  14.0876262  77.2805281 102.4060920  15.4991524  77.6306867
 109.6055159  15.2348569  77.5574255 108.9700992  15.3083196  78.2695160
 109.2752565  15.8242168  76.8793335  99.6631741  11.7432143  84.4889592
  99.7924122  11.9966622  85.4029004  98.9829192  12.3359851  84.1694247
 103.8331228  22.4129393  80.5880066 103.7555258  23.3637218  80.6668547
 103.2292872  22.0675265  81.2454992 105.9306947  14.8347451  82.4233935
 106.3945292  15.1135154  81.6338558 105.6663745  13.9330895  82.2407026
 102.8231028  14.3818932  85.3613699 103.3932385  14.8106200  84.7231183
 103.4139140  14.1001517  86.0597884 106.1069597  17.7711546  79.3085606
 105.9715272  18.6163081  79.7370454 106.6479410  17.9730823  78.5451540
  99.5598995  15.2886984  79.8813531 100.0723515  16.0830234  80.0319096
 100.2121708  14.5913274  79.8147132 101.3693879  18.4052740  81.9636284
 101.5460508  19.3270705  81.7757268 102.1650713  18.0911159  82.3930664
 102.4925195  19.9230914  87.9646626 103.0432620  19.7947977  87.1923620
 101.6536671  20.2225803  87.6141519  97.5247911  13.6175638  80.6573101
  98.3623133  14.0272646  80.4406809  97.7026179  12.6775080  80.6273295
 107.6545079  15.3168034  79.8209669 107.1266440  14.5820794  79.5082907
 107.1532581  16.0942710  79.5749638 108.7065758  21.8445751  75.7441329
 108.0327456  22.1477448  76.3526286 109.0931580  22.6474832  75.3946786
 112.2105180  16.8467429  81.1159800 111.7567507  16.0058338  81.1724991
 111.5799146  17.4828827  81.4534580 110.6538119  18.6843925  82.0509618
 110.9461093  19.2448982  81.3321984 111.1636739  18.9772486  82.8062777
 106.6762000  14.7769583  74.6856711 106.2381430  14.0605442  74.2262349
 107.4172441  15.0045698  74.1241803 105.6171744  19.4624276  83.1403072
 105.5747923  19.6885123  82.2111604 106.5334443  19.2287651  83.2888873
 103.7337545  16.3387305  82.9365034 104.5278143  15.8437625  82.7347609
 103.0229237  15.8105168  82.5732740 108.5532389  18.7205401  87.2877402
 108.6069412  19.2896337  88.0555118 107.6847171  18.8907286  86.9231439
 106.3108821  16.9116327  86.6162871 106.1719907  16.5435112  87.4888809
 105.5223417  17.4263967  86.4446829 106.9056973  22.0125424  77.9588408
 107.0808728  21.5413467  78.7734031 106.2189761  22.6391190  78.1869669
 107.8614036  16.2897930  84.0051709 107.5263869  16.2498700  84.9009359
 107.3617982  15.6242646  83.5322119 101.4718058  25.1614787  84.7328268
 101.7114656  25.7933311  85.4107287 100.6287255  24.8102827  85.0193627
  94.1073914  12.6416548  83.4951580  94.7944954  12.3278278  82.9072595
  93.9522042  13.5457913  83.2218832 105.9845920  20.9693909  87.1369772
 105.9116091  21.7748881  87.6489077 105.5423313  21.1685875  86.3117793
 105.7735700  20.2065679  80.6472594 104.9903221  20.7487359  80.7410818
 106.4728445  20.7239659  81.0466835 108.4444603  20.8680743  89.2927931
 109.1572576  21.5028208  89.2203832 107.9534632  20.9644609  88.4767932
 103.4956517  18.6175187  90.1133501 104.1965976  19.2511669  90.2662896
 103.0251632  18.9589918  89.3529141 111.6210913  16.9593136  78.3981409
 111.8970757  16.8449731  79.3075283 110.7515412  16.5610621  78.3593582
 108.2564977  21.2079487  82.0414222 108.4387371  20.3901143  82.5041974
 109.0797963  21.4247179  81.6039112 108.5907142  20.1347672  79.3029271
 109.1194909  19.6240127  78.6899433 108.8535362  19.8190202  80.1674804
  99.0924235  18.1511542  87.0464604  99.6777672  17.4055229  87.1792508
  98.8949074  18.4615498  87.9301268 101.9462890  21.1862789  82.0627047
 101.2773266  21.6708917  81.5791087 101.8075760  21.4332009  82.9770425
  93.6841890  10.7217142  85.7669047  93.7225989  10.1880732  86.5606165
  93.1782183  10.1952347  85.1480024 106.0868159  23.2206532  88.6609705
 106.6386467  23.3838154  89.4258790 106.4274352  23.8110970  87.9889730
 109.2236546  21.1688508  85.6473387 109.0987686  20.3678248  85.1384333
 109.8815637  21.6634701  85.1587357 108.2917888  18.7650244  83.4757289
 108.1442850  17.8366952  83.6564859 109.1171381  18.7870335  82.9914365
 111.8952010  19.5878803  84.5622162 112.8198557  19.3821664  84.4246613
 111.7267313  19.3395204  85.4711504 111.6847326  20.1064470  79.9184254
 111.8584203  19.5410893  79.1658106 112.1776217  20.9065365  79.7363744
  97.5024286  12.1179140  87.9847812  96.9577754  12.8938948  88.1168087
  98.3803636  12.4649944  87.8266934 112.6722498  19.4231235  77.0181152
 113.3673403  20.0437928  77.2368467 113.0145649  18.5726586  77.2933530
  98.2890308  11.2449036  90.8777969  97.5472044  11.3931671  91.4642600
  97.9683052  11.5057301  90.0144719 106.2554582  22.9402924  82.9063736
 105.8159573  22.4479302  83.5996593 107.0062699  22.3975891  82.6655811
  98.7346921  19.1314465  82.9088364  99.5604941  18.8318236  82.5287007
  98.3840973  18.3622087  83.3578153 103.7028454  18.4840933  84.9786038
 103.0808464  17.8211638  84.6788265 104.3733321  18.5102065  84.2959685
  96.9355526  17.0500791  83.8677298  96.0987435  16.6222965  83.6861299
  96.9079172  17.2433234  84.8048089 103.2641961  17.0344856  78.4544498
 103.4130082  17.7180321  77.8011171 104.0708405  17.0149946  78.9693954
 101.0194594  13.0610034  79.4605567 100.7740636  12.1572364  79.6585777
 101.1890509  13.0627184  78.5185045 106.7637367  19.5292987  75.9256245
 106.1911334  20.1483174  75.4726717 107.3370160  20.0792348  76.4596167
 109.9834627  19.8130137  77.0564828 110.9165300  19.7475698  77.2597703
 109.8957839  20.6486404  76.5979360 112.6122643  19.1296007  74.0168775
 112.5336275  18.7955871  74.9104533 113.4332310  19.6217775  74.0160248
 100.0284930  12.8272580  87.3695736 100.2470940  13.7589688  87.3883770
 100.4410704  12.4680555  88.1550540  96.1193283  13.7313051  85.6219351
  95.4256754  13.3167003  85.1089306  96.8666274  13.7733587  85.0252770
  98.0330025  13.6631304  83.4985366  98.0100713  13.7618992  82.5467249
  98.3430662  14.5096455  83.8202532 100.6917403  15.7207459  87.6131980
 101.6460657  15.6891402  87.5461912 100.4929927  15.2598083  88.4282206
 101.2816785  14.2908575  90.1802778 102.1009674  14.7852654  90.2037615
 101.5553593  13.3740544  90.1520346  99.0467632  21.2627079  84.6302178
  98.9122100  20.5027480  84.0640176  98.6299694  21.9867979  84.1630967
 110.1826595  16.4464002  73.6378754 110.8862445  16.6514005  74.2536409
 109.4589244  17.0140764  73.9027837 102.2036758  22.1596396  84.8420621
 102.0869142  23.1041828  84.7399311 101.3829204  21.8569957  85.2306420
 112.0913292  16.8846532  75.6877214 112.9258896  16.4527730  75.5054688
 111.9297635  16.7128545  76.6154108 103.2291272  22.8124658  88.0576549
 104.1318519  22.8448268  88.3743044 103.0028642  21.8825109  88.0722885
 104.9844874  21.5655644  84.7186628 104.0340505  21.5657506  84.6051000
 105.2877360  20.8188379  84.2022663 113.3874090  29.2079087  81.7090806
 112.8238955  29.1169024  80.9407094 113.2726485  28.3878992  82.1893299
 110.9338521  30.7030279  84.5475027 111.7259813  30.3621104  84.1321326
 111.1735172  30.8125254  85.4677180 112.8929275  29.9639192  77.4192405
 113.6660151  29.4168179  77.2805281 113.2454674  30.8283441  77.6306867
 115.2295553  26.1231858  75.0510855 115.4821074  25.6013380  74.2894318
 114.2920112  25.9598004  75.1537539 114.9491842  28.0259964  77.2535230
 114.8328100  27.3504868  77.9216315 115.0594102  27.5392338  76.4367383
 113.1416685  27.4290787  83.6545803 112.2167181  27.2967001  83.8623495
 113.3901098  28.2085006  84.1515745 110.5025496  27.0724060  84.4889592
 110.6317877  27.3258539  85.4029004 109.8222947  27.6651768  84.1694247
 114.6724983  37.7421310  80.5880066 114.5949013  38.6929135  80.6668547
 114.0686626  37.3967183  81.2454992 113.6624782  29.7110850  85.3613699
 114.2326139  30.1398118  84.7231183 114.2532894  29.4293434  86.0597884
 109.4494921  24.5446073  84.5340634 108.6593975  24.8003602  84.0580745
 109.9406168  25.3594411  84.6392675 111.4009666  24.9090653  81.4924111
 110.6040830  25.0209347  82.0107606 111.1735259  25.2477305  80.6265001
 107.7332624  24.7976564  86.9655625 107.9840663  25.6823574  87.2313201
 108.2692172  24.6181165  86.1930717 110.3992749  30.6178901  79.8813531
 110.9117270  31.4122152  80.0319096 111.0515462  29.9205192  79.8147132
 112.2087634  33.7344658  81.9636284 112.3854262  34.6562622  81.7757268
 113.0044467  33.4203077  82.3930664 113.3318949  35.2522831  87.9646626
 113.8826374  35.1239895  87.1923620 112.4930425  35.5517720  87.6141519
 108.3641666  28.9467556  80.6573101 109.2016888  29.3564564  80.4406809
 108.5419934  28.0066998  80.6273295 113.2257561  21.3079618  82.1816281
 113.8001313  21.0854799  81.4489474 113.8128543  21.3768312  82.9344882
 113.5527148  23.3384079  76.2012166 112.7164460  23.6758765  76.5221441
 113.4131917  23.2033059  75.2639303 115.5280228  18.1820867  80.9091350
 114.8744641  17.8669884  80.2847965 115.4860703  17.5596607  81.6351173
 108.3867837  26.2858271  81.3283835 108.1892237  25.6927632  80.6034901
 107.8314501  25.9810481  82.0459774 114.3056921  24.7958437  81.2068807
 113.4924786  25.0952608  81.6133999 114.8015915  24.4014126  81.9243289
 114.5731299  31.6679223  82.9365034 115.3671898  31.1729543  82.7347609
 113.8622992  31.1397086  82.5732740 110.8814063  25.8122305  79.0124787
 109.9511651  25.7506760  79.2294749 110.9771535  25.2898258  78.2161428
 110.7999612  22.3377118  81.6003029 111.0606429  23.2522451  81.4912189
 111.6216784  21.8701560  81.7499641 112.3111813  40.4906704  84.7328268
 112.5508411  41.1225228  85.4107287 111.4681009  40.1394744  85.0193627
 113.4265528  23.1831306  73.4010073 112.5494994  23.0620107  73.0372320
 113.9023281  22.3917385  73.1488962 104.9467668  27.9708466  83.4951580
 105.6338708  27.6570196  82.9072595 104.7915797  28.8749831  83.2218832
 109.7502390  22.8598663  87.9236604 109.6660579  22.2524332  87.1887014
 108.9285097  23.3507681  87.9246100 114.3350271  33.9467104  90.1133501
 115.0359731  34.5803587  90.2662896 113.8645386  34.2881836  89.3529141
 109.9317990  33.4803459  87.0464604 110.5171426  32.7347147  87.1792508
 109.7342828  33.7907416  87.9301268 112.7856645  36.5154707  82.0627047
 112.1167020  37.0000834  81.5791087 112.6469514  36.7623927  82.9770425
 104.5235644  26.0509059  85.7669047 104.5619744  25.5172650  86.5606165
 104.0175937  25.5244265  85.1480024 108.1544222  24.7773162  78.8422979
 108.4497663  23.8683840  78.7890032 107.2532258  24.7560901  78.5203981
 111.6838469  22.8529158  84.8250527 110.9625055  23.4665126  84.6858001
 112.4731725  23.3886923  84.7467173 109.8832063  22.4587259  78.9662304
 109.5544770  21.5784638  78.7837410 110.2371434  22.4034928  79.8538693
 112.9973887  22.7460229  79.3337782 113.3369959  23.2746150  78.6116390
 113.4446007  23.0840635  80.1096348 114.9842034  21.2434851  77.5331074
 115.7050396  21.6216103  77.0294791 114.3607338  21.9623727  77.6366052
 113.8672378  24.9065713  85.0460151 113.7216959  25.2206016  85.9384433
 113.3897582  25.5250613  84.4931050 108.3418040  27.4471057  87.9847812
 107.7971508  28.2230865  88.1168087 109.2197390  27.7941862  87.8266934
 115.1305657  20.7782641  80.3628611 115.2521568  19.8499287  80.5619498
 114.8407699  20.7921327  79.4506926 109.1284062  26.5740954  90.8777969
 108.3865798  26.7223589  91.4642600 108.8076806  26.8349219  90.0144719
 109.5740676  34.4606382  82.9088364 110.3998696  34.1610154  82.5287007
 109.2234728  33.6914005  83.3578153 114.5422209  33.8132850  84.9786038
 113.9202218  33.1503555  84.6788265 115.2127076  33.8393982  84.2959685
 107.7749281  32.3792709  83.8677298 106.9381189  31.9514883  83.6861299
 107.7472926  32.5725152  84.8048089 114.1035716  32.3636774  78.4544498
 114.2523836  33.0472238  77.8011171 114.9102159  32.3441864  78.9693954
 111.8588349  28.3901951  79.4605567 111.6134391  27.4864281  79.6585777
 112.0284263  28.3919102  78.5185045 111.1283996  24.1230309  76.9591728
 110.4353241  24.1974664  76.3031764 110.8835748  23.3590653  77.4813245
 107.0898777  25.4402057  83.6526230 106.7701562  24.5867365  83.3600604
 106.5432206  25.6550635  84.4084197 110.8678685  28.1564498  87.3695736
 111.0864695  29.0881606  87.3883770 111.2804459  27.7972472  88.1550540
 114.9419622  20.9782629  73.3439162 115.8038786  21.3037527  73.6034980
 115.1269966  20.1914125  72.8312228 106.9587037  29.0604968  85.6219351
 106.2650509  28.6458921  85.1089306 107.7060028  29.1025505  85.0252770
 108.8723780  28.9923222  83.4985366 108.8494468  29.0910909  82.5467249
 109.1824416  29.8388373  83.8202532 111.5311158  31.0499377  87.6131980
 112.4854411  31.0183319  87.5461912 111.3323681  30.5890001  88.4282206
 112.1210540  29.6200493  90.1802778 112.9403429  30.1144572  90.2037615
 112.3947348  28.7032461  90.1520346 109.8861387  36.5918997  84.6302178
 109.7515854  35.8319397  84.0640176 109.4693449  37.3159896  84.1630967
 113.0430512  37.4888314  84.8420621 112.9262897  38.4333746  84.7399311
 112.2222959  37.1861875  85.2306420 107.3745454  23.9538627  90.8794975
 108.0204318  23.4437581  91.3682200 107.1662605  24.6907309  91.4538400
 114.0685027  38.1416575  88.0576549 114.9712273  38.1740186  88.3743044
 113.8422397  37.2117026  88.0722885 115.3629399  41.3800977  85.7669047
 115.4013498  40.8464568  86.5606165 114.8569692  40.8536183  85.1480024
 112.3111814  17.4968827  71.4573575 112.5508412  18.1287351  72.1352593
 111.4681010  17.1456867  71.7438934 115.3629400  18.3863100  72.4914354
 115.4013500  17.8526690  73.2851472 114.8569693  17.8598305  71.8725331
  47.5760111  65.1171764 127.1187546  47.4973743  64.7831627 128.0123304
  48.3969778  65.6093532 127.1179018  47.5760113  42.1233886 113.8432852
  47.4973744  41.7893750 114.7368610  48.3969779  42.6155654 113.8424325
  53.9311118  55.8687934 116.8469348  53.2799097  56.4542015 116.4603362
  54.7255480  56.3994129 116.9064385  47.8566745  52.9577071 117.2456482
  48.6297621  52.4106058 117.1069358  48.2092144  53.8221321 117.4570944
  50.1933023  49.1169737 114.8774932  50.4458543  48.5951259 114.1158395
  49.2557582  48.9535883 114.9801616  55.4086383  53.5578366 117.3838332
  54.7732216  53.6312993 118.0959237  55.0783789  54.1471965 116.7057412
  49.9129311  51.0197843 117.0799307  49.7965569  50.3442747 117.7480392
  50.0231571  50.5330217 116.2631460  51.8966339  45.5097890 115.7807345
  52.0640742  46.3778127 116.1477816  51.7063508  45.6725172 114.8568634
  51.8755560  47.9655548 116.7654012  51.7555185  48.4112598 117.6039492
  51.1808148  48.3140865 116.2067550  49.6362452  60.7359189 120.4144143
  49.5586482  61.6867015 120.4932624  49.0324096  60.3905062 121.0719069
  57.5740626  48.4377021 117.5934346  58.4858482  48.6704408 117.4182043
  57.0650273  49.0214065 117.0309424  60.0599440  54.3557277 122.3392291
  59.3750479  54.7356179 121.7889324  60.1443290  54.9652604 123.0724239
  51.7338170  53.1577247 122.2498012  52.1976516  53.4364950 121.4602635
  51.4694968  52.2560692 122.0671103  50.6707056  49.2800400 119.0587578
  51.3731100  49.7321443 119.5261504  50.3387685  48.6384219 119.6867471
  66.5202193  51.2227940 123.4594963  65.7665901  50.6535338 123.3038968
  66.6549734  51.1890605 124.4065598  51.9100821  56.0941342 119.1349683
  51.7746496  56.9392878 119.5634531  52.4510634  56.2960620 118.3715617
  45.3630218  53.6116780 119.7077608  45.8754739  54.4060031 119.8583173
  46.0152931  52.9143071 119.6411209  47.1725103  56.7282537 121.7900361
  47.3491731  57.6500501 121.6021345  47.9681937  56.4140956 122.2194741
  55.2243567  49.6080515 116.1721011  54.7090191  50.3785120 116.4109399
  54.9520876  48.9345652 116.7954073  60.1977841  52.3612870 118.1074185
  59.4207284  52.0224030 117.6629347  60.8769322  52.3665493 117.4329150
  55.0129871  47.4807607 117.9980792  54.7080006  47.7953757 118.8490936
  55.9660313  47.5589027 118.0408125  53.4576302  53.6397831 119.6473746
  52.9297664  52.9050590 119.3346984  52.9563805  54.4172507 119.4013715
  58.4369148  51.8346851 124.7640793  57.7792823  52.5246113 124.8520921
  59.2409548  52.2243283 125.1074779  57.2474607  50.1891224 122.8144735
  57.7606489  50.8221216 123.3166444  57.8975831  49.5892419 122.4488095
  48.5164617  46.3321958 116.0276243  47.6801929  46.6696645 116.3485518
  48.3769387  46.1970938 115.0903380  51.6028903  51.4578041 112.6508719
  50.6955964  51.2267295 112.8499868  52.0999935  50.6615660 112.8382701
  54.5096981  60.1675548 115.5705406  53.8358680  60.4707245 116.1790363
  54.8962803  60.9704629 115.2210863  54.5090486  49.0632095 120.1905755
  55.2562305  49.5753492 119.8812877  54.7782075  48.7416148 121.0510149
  52.7817136  51.5590636 117.1732710  51.8728355  51.2749669 117.2705179
  52.8112220  51.9789714 116.3136016  58.0136403  55.1697225 120.9423877
  57.5598731  54.3288135 120.9989068  57.3830370  55.8058624 121.2798657
  56.4569343  57.0073722 121.8773695  56.7492317  57.5678779 121.1586061
  56.9667963  57.3002283 122.6326854  52.4793224  53.0999380 114.5120788
  52.0412654  52.3835239 114.0526426  53.2203665  53.3275494 113.9505880
  51.4202968  57.7854073 122.9667149  51.3779147  58.0114920 122.0375681
  52.3365667  57.5517448 123.1152950  60.5966339  51.3756577 120.5697107
  60.4584237  51.5658173 119.6418296  60.2402557  52.1375959 121.0265158
  60.6235718  53.4433104 125.5808378  61.0572225  53.3508393 126.4291432
  61.3367299  53.4190604 124.9428394  49.5368769  54.6617102 122.7629111
  50.3309367  54.1667422 122.5611686  48.8260461  54.1334965 122.3996817
  52.7088197  60.3355221 117.7852485  52.8839952  59.8643264 118.5998108
  52.0220985  60.9620987 118.0133746  56.6004451  51.9583761 114.1052846
  55.9833622  51.2330589 114.0085898  56.1320940  52.7193122 113.7619920
  47.2749282  63.4844583 124.5592345  47.5145880  64.1163108 125.2371364
  46.4318478  63.1332623 124.8457704  48.3902997  46.1769186 113.2274150
  47.5132464  46.0557986 112.8636397  48.8660750  45.3855264 112.9753039
  51.5766923  58.5295476 120.4736671  50.7934445  59.0717156 120.5674895
  52.2759669  59.0469456 120.8730912  62.7393331  50.0430471 124.7589167
  62.7283207  50.9255186 124.3883101  61.8710710  49.6902022 124.5643705
  55.9693354  53.0961793 120.6909299  55.0349633  53.2163255 120.5214004
  56.1470023  52.1934259 120.4269309  59.3565905  48.9379112 121.2259333
  59.8226358  49.7707103 121.1519636  59.8073406  48.4724093 121.9304592
  57.4242137  55.2822933 118.2245486  57.7001981  55.1679528 119.1339360
  56.5546635  54.8840418 118.1857659  54.0596201  59.5309284 121.8678299
  54.2418595  58.7130940 122.3306051  54.8829187  59.7476976 121.4303189
  54.3938366  58.4577469 119.1293348  54.9226133  57.9469924 118.5163510
  54.6566586  58.1419999 119.9938881  47.7494114  59.5092586 121.8891124
  47.0804489  59.9938713 121.4055164  47.6106984  59.7561806 122.8034502
  55.0267770  59.4918305 125.4737464  54.9018909  58.6908045 124.9648410
  55.6846861  59.9864498 124.9851434  57.0902678  57.2927325 127.1017014
  56.1433014  57.1732676 127.0295341  57.4385451  56.4049823 127.1843276
  54.0949112  57.0880041 123.3021366  53.9474074  56.1596749 123.4828936
  54.9202605  57.1100132 122.8178442  57.6983233  57.9108600 124.3886239
  58.6229781  57.7051461 124.2510690  57.5298537  57.6625001 125.2975581
  54.0910626  44.9417879 118.2953484  54.3074240  45.8242517 117.9942312
  53.6104693  44.5504092 117.5659126  57.4878550  58.4294267 119.7448331
  57.6615427  57.8640690 118.9922183  57.9807441  59.2295162 119.5627821
  63.3417941  51.1930690 121.3638630  63.7849087  50.4438015 120.9657754
  62.4644451  51.1840827 120.9812362  58.4753722  57.7461032 116.8445229
  59.1704627  58.3667724 117.0632544  58.8176872  56.8956383 117.1197607
  60.3745145  55.1960737 118.3732560  60.8996469  55.5348010 117.6481880
  60.2867498  54.2607753 118.1895694  52.0585806  61.2632721 122.7327813
  51.6190796  60.7709099 123.4260670  52.8093923  60.7205688 122.4919888
  49.0673185  55.3574653 118.2808575  49.2161305  56.0410117 117.6275248
  49.8739629  55.3379743 118.7958031  62.8850806  52.6635929 123.7561078
  63.7197697  53.1025733 123.9198638  63.0209934  52.1874582 122.9369324
  52.5668591  57.8522783 115.7520322  51.9942558  58.4712971 115.2990794
  53.1401384  58.4022145 116.2860244  55.7865850  58.1359934 116.8828905
  56.7196524  58.0705495 117.0861780  55.6989063  58.9716200 116.4243437
  58.4153867  57.4525804 113.8432852  58.3367499  57.1185668 114.7368610
  59.2363534  57.9447572 113.8424325  52.9515389  49.1883596 113.0936375
  53.8974494  49.0589804 113.1624793  52.5729634  48.4498258 113.5705803
  66.9308608  51.3803550 126.1915208  67.6611997  51.1188838 126.7522911
  66.3215554  50.6432272 126.2317276  51.1358306  47.1133573 113.0291260
  50.2289762  46.8166685 113.1053974  51.4134287  46.8163391 112.1625546
  49.9057091  43.9720508 113.1703239  50.7676255  44.2975406 113.4299057
  50.0907435  43.1852004 112.6576305  56.8414605  45.0049125 119.3694811
  55.9540460  45.2898775 119.1515005  57.2568594  44.8442888 118.5222088
  55.9857819  54.7693799 113.4642831  56.6893669  54.9743802 114.0800486
  55.2620468  55.3370561 113.7291914  56.8155629  50.5203661 119.5845101
  56.7590831  50.9772212 118.7452733  57.3683972  49.7594345 119.4067944
  60.6260435  46.3093392 120.4095220  60.3697369  45.9090028 121.2403428
  60.0013303  47.0237186 120.2845359  64.9372773  49.0489466 122.9166512
  64.3772331  49.1182655 123.6898074  64.3316276  48.8730450 122.1966008
  48.0067982  60.4826193 124.6684698  47.8900366  61.4271625 124.5663388
  47.1860428  60.1799754 125.0570497  57.8944516  55.2076329 115.5141291
  58.7290120  54.7757527 115.3318765  57.7328859  55.0358342 116.4418185
  57.5490408  51.7108442 116.8797630  57.4939212  51.5452713 115.9386074
  56.9236464  52.4184475 117.0359820  50.7876098  59.8885441 124.5450705
  49.8371729  59.8887303 124.4315077  51.0908584  59.1418176 124.0286740
  59.1905313  67.5308884 121.5354883  58.6270178  67.4398821 120.7671171
  59.0757708  66.7108789 122.0157376  64.7704872  71.1979852 116.8469348
  64.1192852  71.7833932 116.4603362  65.5649235  71.7286047 116.9064385
  58.6960499  68.2868989 117.2456482  59.4691375  67.7397976 117.1069358
  59.0485898  69.1513238 117.4570944  61.0326777  64.4461655 114.8774932
  61.2852298  63.9243176 114.1158395  60.0951336  64.2827801 114.9801616
  66.2480137  68.8870284 117.3838332  65.6125970  68.9604910 118.0959237
  65.9177544  69.4763883 116.7057412  60.7523066  66.3489761 117.0799307
  60.6359324  65.6734664 117.7480392  60.8625326  65.8622135 116.2631460
  63.0954607  65.8099908 120.7845996  62.7312814  65.2830529 121.4958918
  63.9521723  65.4198377 120.6112482  62.7360094  60.8389808 115.7807345
  62.9034496  61.7070044 116.1477816  62.5457263  61.0017090 114.8568634
  62.7149315  63.2947465 116.7654012  62.5948940  63.7404516 117.6039492
  62.0201903  63.6432783 116.2067550  68.4134381  63.7668939 117.5934346
  69.3252237  63.9996325 117.4182043  67.9044028  64.3505983 117.0309424
  61.5100811  64.6092317 119.0587578  62.2124854  65.0613361 119.5261504
  61.1781439  63.9676136 119.6867471  55.2526145  62.8675870 124.3604711
  54.4625199  63.1233399 123.8844822  55.7437392  63.6824208 124.4656752
  57.2040890  63.2320449 121.3188188  56.4072054  63.3439144 121.8371683
  56.9766482  63.5707102 120.4529078  56.2023973  68.9408698 119.7077608
  56.7148494  69.7351948 119.8583173  56.8546686  68.2434989 119.6411209
  54.1672890  67.2697352 120.4837178  55.0048112  67.6794361 120.2670886
  54.3451157  66.3296795 120.4537372  66.0637322  64.9372433 116.1721011
  65.5483945  65.7077038 116.4109399  65.7914630  64.2637569 116.7954073
  63.6484433  59.7822134 121.2306250  62.7926029  59.3928984 121.0511888
  64.0611385  59.8614095 120.3706035  61.4226465  57.4007207 124.6363991
  62.2879462  57.2050016 124.2769881  61.4903974  57.1717559 125.5633348
  65.8523625  62.8099525 117.9980792  65.5473761  63.1245674 118.8490936
  66.8054067  62.8880945 118.0408125  64.2970057  68.9689748 119.6473746
  63.7691418  68.2342508 119.3346984  63.7957560  69.7464425 119.4013715
  59.0288784  59.6309415 122.0080358  59.6032536  59.4084596 121.2753551
  59.6159767  59.6998109 122.7608959  59.3558372  61.6613876 116.0276243
  58.5195684  61.9988562 116.3485518  59.2163141  61.5262856 115.0903380
  61.3311452  56.5050664 120.7355427  60.6775865  56.1899681 120.1112042
  61.2891926  55.8826404 121.4615250  62.4422657  66.7869959 112.6508719
  61.5349719  66.5559212 112.8499868  62.9393689  65.9907578 112.8382701
  65.3484240  64.3924013 120.1905755  66.0956059  64.9045410 119.8812877
  65.6175830  64.0708066 121.0510149  63.6210890  66.8882554 117.1732710
  62.7122110  66.6041586 117.2705179  63.6505974  67.3081632 116.3136016
  67.7963077  61.4281129 122.1724545  67.0585834  60.9158515 122.5034787
  68.0489851  60.9881511 121.3607821  67.8974705  54.2057381 122.7666314
  68.2033582  53.3454745 122.4792229  68.6227310  54.7975001 122.5665308
  54.1899061  64.6088068 121.1547912  53.9923461  64.0157428 120.4298978
  53.6345725  64.3040278 121.8723851  63.3186978  68.4291297 114.5120788
  62.8806408  67.7127156 114.0526426  64.0597419  68.6567412 113.9505880
  60.1088144  63.1188234 121.0332884  59.2956010  63.4182405 121.4398076
  60.6047139  62.7243923 121.7507366  56.6845287  64.1352102 118.8388864
  55.7542875  64.0736557 119.0558826  56.7802759  63.6128054 118.0425505
  56.6030836  60.6606914 121.4267106  56.8637653  61.5752248 121.3176266
  57.4248008  60.1931357 121.5763718  67.4398206  67.2875679 114.1052846
  66.8227377  66.5622507 114.0085898  66.9714694  68.0485039 113.7619920
  59.2296752  61.5061103 113.2274150  58.3526218  61.3849904 112.8636397
  59.7054505  60.7147182 112.9753039  50.7498892  66.2938263 123.3215657
  51.4369932  65.9799993 122.7336673  50.5947021  67.1979628 123.0482909
  55.5533614  61.1828460 127.7500681  55.4691803  60.5754129 127.0151091
  54.7316320  61.6737478 127.7510177  65.7257328  59.6682023 123.1170876
  66.2226027  58.9151985 122.7971946  64.9544309  59.7046340 122.5514085
  62.3092297  61.8099406 122.8442561  61.9390084  61.2570446 123.5323466
  62.8051389  61.2057540 122.2917561  50.3266868  64.3738856 125.5933124
  50.3650968  63.8402447 126.3870242  49.8207161  63.8474062 124.9744101
  53.9575446  63.1002958 118.6687056  54.2528887  62.1913637 118.6154109
  53.0563481  63.0790698 118.3468058  57.4869693  61.1758955 124.6514604
  56.7656278  61.7894923 124.5122078  58.2762948  61.7116720 124.5731250
  55.6863287  60.7817056 118.7926381  55.3575993  59.9014435 118.6101487
  56.0402658  60.7264725 119.6802770  58.8005110  61.0690026 119.1601859
  59.1401183  61.5975947 118.4380467  59.2477231  61.4070432 119.9360425
  60.7873258  59.5664648 117.3595151  61.5081620  59.9445900 116.8558868
  60.1638562  60.2853524 117.4630129  64.9304380  60.2709796 118.2953484
  65.1467995  61.1534434 117.9942312  64.4498448  59.8796010 117.5659126
  61.5299985  60.2198058 124.9205118  61.5161553  59.3239151 124.5837416
  62.2472413  60.2268721 125.5543404  60.9336881  59.1012438 120.1892688
  61.0552792  58.1729084 120.3883575  60.6438923  59.1151124 119.2771003
  63.8028071  56.7867348 123.3259408  63.8249768  56.8506681 122.3711387
  64.2196130  55.9471857 123.5199914  59.9066940  70.6866571 118.2808575
  60.0555060  71.3702035 117.6275248  60.7133383  70.6671661 118.7958031
  57.6619573  66.7131748 119.2869644  57.4165614  65.8094078 119.4849854
  57.8315487  66.7148899 118.3449122  56.9315220  62.4460106 116.7855805
  56.2384465  62.5204461 116.1295841  56.6866972  61.6820450 117.3077322
  65.6028877  54.0055707 124.1895296  65.8830630  53.3378896 124.8155723
  66.3879484  54.1984803 123.6769960  63.4062345  73.1814701 115.7520322
  62.8336312  73.8004888 115.2990794  63.9795139  73.7314063 116.2860244
  69.2547622  72.7817722 113.8432852  69.1761253  72.4477585 114.7368610
  70.0757288  73.2739489 113.8424325  63.7909144  64.5175514 113.0936375
  64.7368248  64.3881722 113.1624793  63.4123389  63.7790176 113.5705803
  69.7631028  56.1831520 123.0563267  69.5655849  55.8746608 123.9406599
  70.3730734  56.9093159 123.1861197  61.9752061  62.4425490 113.0291260
  61.0683516  62.1458603 113.1053974  62.2528042  62.1455308 112.1625546
  52.8930001  63.7631854 123.4790307  52.5732785  62.9097162 123.1864681
  52.3463429  63.9780432 124.2348274  63.5914126  56.9862380 119.1835501
  62.7814855  56.6409465 119.5590748  64.2798543  56.6769924 119.7723113
  65.5204675  56.0640427 120.8059798  66.0735713  56.4835880 121.4649821
  65.7574761  55.1376175 120.8482754  60.7450845  59.3012425 113.1703239
  61.6070009  59.6267324 113.4299057  60.9301190  58.5143921 112.6576305
  52.7618261  67.3834765 125.4483428  52.0681733  66.9688718 124.9353383
  53.5091252  67.4255302 124.8516847  68.8983482  58.1740952 120.3138462
  68.3182151  58.8325756 119.9316515  68.6319415  57.3518297 119.9025880
  67.3487048  57.5746010 122.5159783  67.8486827  57.6862544 121.7074102
  67.9922656  57.2707062 123.1560591  54.6755004  67.3153019 123.3249443
  54.6525692  67.4140706 122.3731326  54.9855640  68.1618170 123.6466609
  67.6808360  60.3341042 119.3694811  66.7934215  60.6190693 119.1515005
  68.0962349  60.1734806 118.5222088  66.8251573  70.0985717 113.4642831
  67.5287423  70.3035719 114.0800486  66.1014222  70.6662479 113.7291914
  67.6549384  65.8495578 119.5845101  67.5984585  66.3064130 118.7452733
  68.2077726  65.0886263 119.4067944  71.4654190  61.6385310 120.4095220
  71.2091124  61.2381946 121.2403428  70.8407058  62.3529104 120.2845359
  68.7338271  70.5368246 115.5141291  69.5683875  70.1049445 115.3318765
  68.5722614  70.3650260 116.4418185  68.3884163  67.0400359 116.8797630
  68.3332967  66.8744631 115.9386074  67.7630218  67.7476392 117.0359820
  61.6980288  56.5408468 116.4582948  61.6858958  57.4850308 116.6151219
  62.5903710  56.3578614 116.1642410  65.5132408  53.1351245 120.7128885
  64.7464804  52.5809732 120.8585568  65.9243113  53.2073114 121.5743037
  47.5760114  19.1296009 100.5678159  47.4973745  18.7955872 101.4613917
  48.3969781  19.6217777 100.5669631  53.9311119  32.8750057 103.5714655
  53.2799099  33.4604137 103.1848668  54.7255482  33.4056252 103.6309692
  47.8566746  29.9639194 103.9701789  48.6297622  29.4168181 103.8314665
  48.2092145  30.8283443 104.1816250  50.1933024  26.1231860 101.6020239
  50.4458544  25.6013381 100.8403702  49.2557583  25.9598005 101.7046922
  55.4086384  30.5640489 104.1083639  54.7732217  30.6375115 104.8204544
  55.0783790  31.1534088 103.4302718  49.9129313  28.0259966 103.8044614
  49.7965571  27.3504869 104.4725698  50.0231572  27.5392340 102.9876767
  51.8966340  22.5160013 102.5052652  52.0640743  23.3840249 102.8723123
  51.7063509  22.6787294 101.5813941  51.8755561  24.9717670 103.4899318
  51.7555186  25.4174721 104.3284799  51.1808150  25.3202988 102.9312857
  49.6362453  37.7421312 107.1389450  49.5586483  38.6929137 107.2177930
  49.0324097  37.3967185 107.7964376  57.5740627  25.4439143 104.3179652
  58.4858484  25.6766530 104.1427350  57.0650275  26.0276188 103.7554731
  60.0599442  31.3619400 109.0637598  59.3750480  31.7418301 108.5134631
  60.1443291  31.9714726 109.7969545  51.7338172  30.1639370 108.9743319
  52.1976517  30.4427073 108.1847942  51.4694970  29.2622815 108.7916410
  50.6707058  26.2862522 105.7832884  51.3731101  26.7383566 106.2506811
  50.3387686  25.6446341 106.4112777  66.5202194  28.2290063 110.1840270
  65.7665903  27.6597461 110.0284274  66.6549735  28.1952727 111.1310905
  51.9100822  33.1003465 105.8594989  51.7746497  33.9455001 106.2879837
  52.4510635  33.3022743 105.0960923  45.3630220  30.6178903 106.4322914
  45.8754740  31.4122153 106.5828479  46.0152933  29.9205193 106.3656516
  47.1725104  33.7344659 108.5145668  47.3491733  34.6562624 108.3266652
  47.9681938  33.4203079 108.9440047  55.2243569  26.6142638 102.8966318
  54.7090192  27.3847243 103.1354705  54.9520877  25.9407774 103.5199379
  60.1977843  29.3674993 104.8319491  59.4207286  29.0286152 104.3874654
  60.8769324  29.3727616 104.1574456  55.0129872  24.4869730 104.7226099
  54.7080007  24.8015879 105.5736242  55.9660314  24.5651150 104.7653432
  53.4576304  30.6459953 106.3719053  52.9297665  29.9112713 106.0592291
  52.9563806  31.4234630 106.1259021  58.4369150  28.8408974 111.4886099
  57.7792824  29.5308235 111.5766228  59.2409549  29.2305406 111.8320086
  57.2474608  27.1953347 109.5390041  57.7606490  27.8283338 110.0411751
  57.8975832  26.5954542 109.1733401  48.5164618  23.3384081 102.7521550
  47.6801931  23.6758767 103.0730825  48.3769388  23.2033060 101.8148687
  51.6028904  28.4640164  99.3754026  50.6955966  28.2329417  99.5745175
  52.0999936  27.6677783  99.5628008  54.5096983  37.1737671 102.2950712
  53.8358681  37.4769368 102.9035670  54.8962805  37.9766751 101.9456169
  54.5090487  26.0694218 106.9151062  55.2562306  26.5815615 106.6058184
  54.7782077  25.7478271 107.7755456  52.7817137  28.5652759 103.8978016
  51.8728357  28.2811791 103.9950486  52.8112221  28.9851837 103.0381323
  58.0136405  32.1759348 107.6669184  57.5598732  31.3350258 107.7234374
  57.3830371  32.8120746 108.0043964  56.4569344  34.0135845 108.6019002
  56.7492318  34.5740902 107.8831368  56.9667964  34.3064406 109.3572161
  52.4793225  30.1061502 101.2366095  52.0412655  29.3897361 100.7771732
  53.2203666  30.3337617 100.6751186  51.4202969  34.7916196 109.6912455
  51.3779148  35.0177042 108.7620987  52.3365668  34.5579570 109.8398256
  60.5966340  28.3818699 107.2942413  60.4584238  28.5720295 106.3663603
  60.2402559  29.1438082 107.7510465  60.6235719  30.4495226 112.3053685
  61.0572226  30.3570515 113.1536739  61.3367300  30.4252727 111.6673701
  49.5368770  31.6679225 109.4874418  50.3309368  31.1729545 109.2856993
  48.8260462  31.1397088 109.1242123  52.7088198  37.3417343 104.5097791
  52.8839954  36.8705386 105.3243414  52.0220986  37.9683109 104.7379052
  56.6004453  28.9645884 100.8298152  55.9833623  28.2392712 100.7331205
  56.1320941  29.7255244 100.4865227  47.2749283  40.4906706 111.2837652
  47.5145881  41.1225230 111.9616670  46.4318480  40.1394746 111.5703011
  48.3902999  23.1831308  99.9519457  47.5132465  23.0620109  99.5881703
  48.8660752  22.3917386  99.6998345  51.5766925  35.5357598 107.1981977
  50.7934446  36.0779279 107.2920202  52.2759670  36.0531578 107.5976218
  62.7393332  27.0492593 111.4834474  62.7283208  27.9317309 111.1128407
  61.8710712  26.6964144 111.2889011  55.9693355  30.1023915 107.4154606
  55.0349634  30.2225378 107.2459310  56.1470024  29.1996382 107.1514616
  59.3565907  25.9441234 107.9504640  59.8226359  26.7769226 107.8764943
  59.8073407  25.4786216 108.6549899  57.4242138  32.2885056 104.9490792
  57.7001982  32.1741650 105.8584666  56.5546637  31.8902541 104.9102965
  54.0596202  36.5371407 108.5923606  54.2418596  35.7193063 109.0551358
  54.8829188  36.7539099 108.1548496  54.3938367  35.4639592 105.8538654
  54.9226134  34.9532046 105.2408816  54.6566587  35.1482122 106.7184187
  47.7494115  36.5154708 108.6136430  47.0804491  37.0000836 108.1300470
  47.6106985  36.7623929 109.5279809  55.0267771  36.4980427 112.1982771
  54.9018911  35.6970167 111.6893716  55.6846862  36.9926621 111.7096741
  57.0902680  34.2989448 113.8262321  56.1433015  34.1794799 113.7540648
  57.4385453  33.4111946 113.9088582  54.0949113  34.0942164 110.0266673
  53.9474075  33.1658871 110.2074243  54.9202606  34.1162254 109.5423748
  57.6983235  34.9170722 111.1131546  58.6229782  34.7113584 110.9755997
  57.5298538  34.6687124 112.0220887  54.0910627  21.9480001 105.0198790
  54.3074242  22.8304639 104.7187618  53.6104694  21.5566215 104.2904432
  57.4878551  35.4356390 106.4693637  57.6615428  34.8702812 105.7167490
  57.9807442  36.2357285 106.2873127  63.3417942  28.1992813 108.0883937
  63.7849088  27.4500138 107.6903060  62.4644452  28.1902949 107.7057669
  58.4753723  34.7523154 103.5690536  59.1704628  35.3729847 103.7877850
  58.8176874  33.9018506 103.8442913  60.3745147  32.2022860 105.0977866
  60.8996471  32.5410133 104.3727186  60.2867499  31.2669875 104.9141001
  52.0585807  38.2694843 109.4573119  51.6190798  37.7771222 110.1505976
  52.8093924  37.7267811 109.2165195  49.0673186  32.3636776 105.0053882
  49.2161307  33.0472240 104.3520554  49.8739630  32.3441866 105.5203337
  62.8850807  29.6698051 110.4806385  63.7197698  30.1087855 110.6443945
  63.0209936  29.1936704 109.6614630  52.5668592  34.8584906 102.4765629
  51.9942559  35.4775093 102.0236101  53.1401386  35.4084268 103.0105551
  55.7865852  35.1422056 103.6074211  56.7196525  35.0767618 103.8107087
  55.6989064  35.9778323 103.1488744  58.4153868  34.4587927 100.5678159
  58.3367500  34.1247790 101.4613917  59.2363535  34.9509694 100.5669631
  52.9515390  26.1945719  99.8181682  53.8974495  26.0651927  99.8870100
  52.5729635  25.4560381 100.2951110  66.9308609  28.3865673 112.9160514
  67.6611998  28.1250961 113.4768218  66.3215555  27.6494395 112.9562582
  51.1358308  24.1195695  99.7536567  50.2289763  23.8228808  99.8299280
  51.4134289  23.8225513  98.8870853  49.9057092  20.9782630  99.8948546
  50.7676256  21.3037529 100.1544363  50.0907436  20.1914126  99.3821612
  56.8414607  22.0111247 106.0940117  55.9540462  22.2960898 105.8760312
  57.2568596  21.8505011 105.2467394  55.9857820  31.7755922 100.1888137
  56.6893670  31.9805924 100.8045793  55.2620469  32.3432684 100.4537221
  56.8155630  27.5265783 106.3090407  56.7590832  27.9834335 105.4698040
  57.3683973  26.7656468 106.1313250  60.6260436  23.3155515 107.1340527
  60.3697371  22.9152151 107.9648735  60.0013304  24.0299309 107.0090666
  64.9372774  26.0551588 109.6411818  64.3772332  26.1244778 110.4143380
  64.3316278  25.8792573 108.9211315  48.0067983  37.4888315 111.3930005
  47.8900367  38.4333748 111.2908695  47.1860429  37.1861877 111.7815804
  57.8944518  32.2138451 102.2386597  58.7290121  31.7819650 102.0564072
  57.7328860  32.0420465 103.1663492  57.5490410  28.7170564 103.6042937
  57.4939213  28.5514836 102.6631381  56.9236465  29.4246597 103.7605126
  50.7876099  36.8947564 111.2696012  49.8371730  36.8949425 111.1560384
  51.0908585  36.1480298 110.7532046  66.5228793  42.7308102 112.3341774
  67.1607203  42.6114850 111.6305114  66.4049635  43.6788946 112.3929726
  63.3318499  42.6835530 112.2703299  62.9937010  42.5676595 111.3823834
  64.2008267  42.2826695 112.2504305  59.1905315  44.5371007 108.2600190
  58.6270180  44.4460944 107.4916477  59.0757710  43.7170911 108.7402682
  63.8138282  43.8370382 118.2289504  63.8026923  43.4423180 117.3570008
  63.9758921  43.1036455 118.8223276  56.7369747  46.0322198 111.0984410
  57.5291038  45.6913023 110.6830709  56.9766397  46.1417173 112.0186563
  64.7704873  48.2041974 103.5714655  64.1192853  48.7896055 103.1848668
  65.5649236  48.7348169 103.6309692  58.6960500  45.2931112 103.9701789
  59.4691376  44.7460099 103.8314665  59.0485899  46.1575361 104.1816250
  60.5345543  46.6207494 117.1768688  60.2435409  47.5253125 117.0615355
  61.1702527  46.6624021 117.8912758  61.4601750  43.9984342 113.7670048
  62.0565322  43.7740365 113.0527011  61.5176721  43.2569088 114.3695496
  61.0326778  41.4523778 101.6020239  61.2852299  40.9305299 100.8403702
  60.0951337  41.2889923 101.7046922  66.0770061  40.4559556 109.4094982
  66.8633150  40.0378979 109.0585399  66.3408765  41.3605648 109.5776630
  66.2480138  45.8932406 104.1083639  65.6125971  45.9667033 104.8204544
  65.9177545  46.4826005 103.4302718  71.4778488  40.3934789 110.3127961
  72.2103660  39.8234006 110.5465790  70.7217844  40.0056390 110.7534466
  60.7523067  43.3551884 103.8044614  60.6359325  42.6796787 104.4725698
  60.8625327  42.8684258 102.9876767  63.0954608  42.8162031 107.5091303
  62.7312815  42.2892652 108.2204225  63.9521724  42.4260500 107.3357788
  69.0003909  34.1056363 114.7722569  68.6687233  34.9751774 114.5483784
  68.4049522  33.7892647 115.4516600  62.7360095  37.8451930 102.5052652
  62.9034497  38.7132167 102.8723123  62.5457264  38.0079212 101.5813941
  65.4935428  46.3068909 114.1718482  65.1936151  47.2093948 114.0634289
  65.1486488  46.0401093 115.0239635  58.9447910  42.7582706 110.2055186
  58.0198406  42.6258920 110.4132878  59.1932323  43.5376925 110.7025129
  68.8932572  38.8251450 111.8515919  67.9849449  38.7566858 111.5574680
  68.8420168  39.3023394 112.6797745  62.7149316  40.3009588 103.4899318
  62.5948941  40.7466639 104.3284799  62.0201904  40.6494906 102.9312857
  56.3056721  42.4015980 111.0398975  56.4349102  42.6550459 111.9538387
  55.6254172  42.9943688 110.7203631  60.4756208  53.0713230 107.1389450
  60.3980238  54.0221055 107.2177930  59.8717851  52.7259102 107.7964376
  62.9673438  40.2441095 119.7950817  62.1906772  40.8035015 119.7853681
  63.6064001  40.7297878 120.3165687  70.7594218  37.0267888 113.6293793
  70.1168599  37.3200421 112.9833588  70.2549147  36.9120808 114.4346990
  68.4134382  40.7731061 104.3179652  69.3252238  41.0058448 104.1427350
  67.9044029  41.3568105 103.7554731  61.2219810  43.0526548 119.3568784
  61.9634494  43.5911592 119.0803607  60.5156795  43.6792837 119.5140335
  66.6975150  45.1955689 117.9540945  67.1058506  44.7538099 117.2095577
  65.9752411  44.6208316 118.2075138  63.0506220  40.1328296 115.3274502
  63.8967415  40.5567709 115.4709151  62.9904857  39.4761920 116.0213065
  67.0203964  45.7556880 111.7093234  66.3912827  45.9202594 111.0069302
  66.6329626  46.1698489 112.4804198  70.8993196  46.6911317 109.0637598
  70.2144234  47.0710219 108.5134631  70.9837045  47.3006644 109.7969545
  66.2005665  37.7932664 116.9855676  65.9566597  38.5474725 116.4489951
  66.4765595  38.1718012 117.8202923  68.1544128  44.3371276 115.6632941
  68.3661023  44.9803036 114.9867322  68.1073876  43.5033593 115.1954871
  65.7570357  36.9489097 112.5669513  64.8954836  37.2470351 112.8586251
  65.7832791  37.1659496 111.6350546  62.5731926  45.4931288 108.9743319
  63.0370272  45.7718991 108.1847942  62.3088724  44.5914732 108.7916410
  59.4656007  45.0402769 111.9123082  60.0357364  45.4690038 111.2740567
  60.0564119  44.7585354 112.6107268  61.5100812  41.6154440 105.7832884
  62.2124856  42.0675484 106.2506811  61.1781441  40.9738259 106.4112777
  55.2526146  39.8737993 111.0850018  54.4625200  40.1295521 110.6090128
  55.7437394  40.6886331 111.1902058  69.2689956  47.2143232 113.8355299
  70.0907399  46.8123419 113.5537980  69.2652359  47.1111466 114.7871414
  57.2040892  40.2382572 108.0433494  56.4072055  40.3501266 108.5616990
  56.9766484  40.5769224 107.1774385  63.0346559  46.7627275 115.9916009
  63.0990992  47.2247682 116.8274181  62.3257483  46.1324640 116.1198319
  53.5363849  40.1268483 113.5165009  53.7871888  41.0115493 113.7822584
  54.0723398  39.9473085 112.7440100  77.3595949  43.5581980 110.1840270
  76.6059657  42.9889378 110.0284274  77.4943490  43.5244645 111.1310905
  62.7494577  48.4295383 105.8594989  62.6140252  49.2746918 106.2879837
  63.2904389  48.6314660 105.0960923  56.2023974  45.9470821 106.4322914
  56.7148495  46.7414071 106.5828479  56.8546687  45.2497111 106.3656516
  58.0118859  49.0636577 108.5145668  58.1885487  49.9854542 108.3266652
  58.8075692  48.7494996 108.9440047  64.3763053  49.0518949 119.9895331
  63.9326907  48.2655328 119.6716236  65.0380267  49.2398100 119.3239222
  59.1350174  50.5814751 114.5156010  59.6857599  50.4531814 113.7433004
  58.2961650  50.8809640 114.1650903  66.4744291  49.3321749 118.0176733
  66.4562767  50.1530630 117.5257002  67.3964211  49.2075824 118.2426874
  62.9317345  46.8465879 118.8600241  63.4645682  46.0854167 118.6299549
  62.4031427  46.5539530 119.6024396  66.0987040  31.9525945 114.3893883
  65.7551310  32.8427586 114.3132993  66.4666003  31.7627602 113.5263468
  54.1672891  44.2759475 107.2082485  55.0048113  44.6856483 106.9916193
  54.3451159  43.3358917 107.1782679  66.0637323  41.9434556 102.8966318
  65.5483947  42.7139160 103.1354705  65.7914632  41.2699692 103.5199379
  63.6484434  36.7884256 107.9551556  62.7926030  36.3991107 107.7757195
  64.0611386  36.8676217 107.0951342  65.1783581  34.3230600 112.3543116
  64.6748376  34.2860735 111.5410921  65.4714188  35.2323342 112.4139773
  61.4226467  34.4069329 111.3609298  62.2879463  34.2112138 111.0015187
  61.4903976  34.1779681 112.2878655  71.0371597  44.6966910 104.8319491
  70.2601040  44.3578070 104.3874654  71.7163078  44.7019533 104.1574456
  65.8523626  39.8161648 104.7226099  65.5473762  40.1307797 105.5736242
  66.8054068  39.8943068 104.7653432  64.2970058  45.9751871 106.3719053
  63.7691420  45.2404631 106.0592291  63.7957561  46.7526547 106.1259021
  69.2762904  44.1700892 111.4886099  68.6186579  44.8600153 111.5766228
  70.0803303  44.5597323 111.8320086  59.0288786  36.6371537 108.7325665
  59.6032538  36.4146719 107.9998858  59.6159768  36.7060232 109.4854266
  68.0868363  42.5245264 109.5390041  68.6000245  43.1575256 110.0411751
  68.7369587  41.9246460 109.1733401  59.3558373  38.6675998 102.7521550
  58.5195685  39.0050685 103.0730825  59.2163142  38.5324978 101.8148687
  61.3311453  33.5112786 107.4600734  60.6775866  33.1961803 106.8357349
  61.2891928  32.8888527 108.1860557  62.4422658  43.7932081  99.3754026
  61.5349720  43.5621335  99.5745175  62.9393690  42.9969701  99.5628008
  65.3490737  52.5029589 102.2950712  64.6752436  52.8061285 102.9035670
  65.7356559  53.3058669 101.9456169  64.5649194  39.9994720 111.7848382
  63.6471755  40.2209667 111.6270070  64.9809337  40.0741030 110.9260089
  65.3484242  41.3986135 106.9151062  66.0956061  41.9107533 106.6058184
  65.6175831  41.0770188 107.7755456  63.6210892  43.8944676 103.8978016
  62.7122111  43.6103709 103.9950486  63.6505976  44.3143755 103.0381323
  68.8530159  47.5051266 107.6669184  68.3992486  46.6642176 107.7234374
  68.2224126  48.1412664 108.0043964  67.7963079  38.4343252 108.8969851
  67.0585836  37.9220638 109.2280094  68.0489852  37.9943633 108.0853128
  67.2963098  49.3427762 108.6019002  67.5886073  49.9032819 107.8831368
  67.8061719  49.6356323 109.3572161  67.8974706  31.2119504 109.4911621
  68.2033583  30.3516867 109.2037536  68.6227311  31.8037124 109.2910614
  54.1899062  41.6150190 107.8793218  53.9923462  41.0219551 107.1544285
  53.6345726  41.3102401 108.5969157  62.1695786  41.5073297 109.9987812
  62.2244396  40.5547133 109.9230288  61.3586988  41.6632736 110.4829110
  63.3186980  45.4353420 101.2366095  62.8806409  44.7189279 100.7771732
  64.0597420  45.6629535 100.6751186  60.1088146  40.1250357 107.7578190
  59.2956011  40.4244527 108.1643383  60.6047140  39.7306045 108.4752673
  62.2596724  50.1208113 109.6912455  62.2172902  50.3468960 108.7620987
  63.1759422  49.8871488 109.8398256  65.7062357  40.5892181 116.5893084
  66.0611745  40.8163654 117.4487550  66.3534489  40.9210558 115.9670340
  71.4360094  43.7110617 107.2942413  71.2977993  43.9012213 106.3663603
  71.0796313  44.4730000 107.7510465  59.6002220  37.6968712 113.3739425
  60.2401600  37.5557471 112.6762389  58.7679751  37.4103225 112.9978027
  71.4629474  45.7787144 112.3053685  71.8965981  45.6862433 113.1536739
  72.1761055  45.7544644 111.6673701  60.3762524  46.9971142 109.4874418
  61.1703123  46.5021463 109.2856993  59.6654217  46.4689006 109.1242123
  65.1957369  49.3789238 113.8386785  65.2494391  49.9480174 114.6064501
  64.3272150  49.5491123 113.4740823  56.6845288  41.1414224 105.5634171
  55.7542876  41.0798680 105.7804133  56.7802760  40.6190177 104.7670812
  56.6030837  37.6669037 108.1512412  56.8637654  38.5814370 108.0421573
  57.4248009  37.1993480 108.3009025  58.0755762  39.0806794 115.3211237
  58.7478816  38.8724156 114.6723886  57.2485549  38.8828880 114.8816469
  72.3245023  45.8210845 114.8386570  72.5180914  46.7256655 115.0845845
  72.2245642  45.3618264 115.6725155  63.9781334  35.7068735 117.3376898
  63.3309249  36.4058685 117.2441374  64.7482350  36.1404879 117.7053146
  67.3860132  45.9717587 120.4127451  67.2345639  45.7428139 119.4957535
  67.3764812  46.9288189 120.4258796  64.1545469  43.5449500 115.3973717
  65.0837529  43.6960660 115.2242685  63.7336499  43.6333521 114.5422364
  62.9533800  47.5700164 113.1672255  62.8144886  47.2018949 114.0398193
  62.1648397  48.0847804 112.9956213  63.5481952  52.6709261 104.5097791
  63.7233708  52.1997304 105.3243414  62.8614740  53.2975027 104.7379052
  64.5039016  46.9481767 110.5561093  64.1688848  46.9082537 111.4518743
  64.0042961  46.2826483 110.0831503  58.4783259  42.3549397 116.0813674
  58.3403057  41.6229636 116.6825213  59.3888183  42.2658297 115.7997862
  61.1065560  42.0669357 115.5697354  61.8165179  41.4262549 115.5283972
  61.0634868  42.3182251 116.4923534  69.0952339  49.0036710 118.4903933
  69.0364885  48.3195930 117.8234516  69.4971857  49.7455700 118.0384559
  58.1143038  55.8198624 111.2837652  58.3539636  56.4517148 111.9616670
  57.2712234  55.4686664 111.5703011  59.2296753  38.5123226  99.9519457
  58.3526219  38.3912027  99.5881703  59.7054506  37.7209304  99.6998345
  69.0969746  46.9676294 116.7217912  68.2096525  46.6302216 116.8444311
  69.6668297  46.2359325 116.9586678  50.7498893  43.3000386 110.0460964
  51.4369933  42.9862116 109.4581979  50.5947022  44.2041750 109.7728215
  55.5533615  38.1890582 114.4745988  55.4691804  37.5816252 113.7396397
  54.7316322  38.6799600 114.4755484  62.6270899  51.6277746 113.6879156
  62.5541071  52.4332718 114.1998460  62.1848293  51.8269712 112.8627177
  62.4160679  50.8649516 107.1981977  61.6328201  51.4071196 107.2920202
  63.1153424  51.3823496 107.5976218  65.7257329  36.6744146 109.8416183
  66.2226029  35.9214108 109.5217253  64.9544311  36.7108462 109.2759392
  73.5787087  42.3784511 111.4834474  73.5676963  43.2609227 111.1128407
  72.7104466  42.0256062 111.2889011  65.0869583  51.5264580 115.8437314
  65.7997555  52.1612045 115.7713216  64.5959612  51.6228446 115.0277316
  66.8087110  45.4315833 107.4154606  65.8743389  45.5517295 107.2459310
  66.9863778  44.5288300 107.1514616  62.3092298  38.8161529 109.5687867
  61.9390085  38.2632569 110.2568773  62.8051390  38.2119662 109.0162867
  70.1959661  41.2733152 107.9504640  70.6620113  42.1061144 107.8764943
  70.6467162  40.8078134 108.6549899  60.1381497  49.2759024 116.6642885
  60.8390956  49.9095507 116.8172279  59.6676612  49.6173755 115.9038524
  68.2635892  47.6176973 104.9490792  68.5395736  47.5033568 105.8584666
  67.3940391  47.2194458 104.9102965  68.1676324  33.6413739 111.9895541
  67.2539404  33.8717966 112.1577748  68.5969425  33.7252183 112.8409574
  67.9382782  41.8303631 114.4895435  67.2854233  42.0779539 113.8347888
  68.3163162  41.0167769 114.1557913  64.8989956  51.8663324 108.5923606
  65.0812351  51.0484980 109.0551358  65.7222942  52.0831017 108.1548496
  65.2332122  50.7931509 105.8538654  65.7619888  50.2823964 105.2408816
  65.4960341  50.4774040 106.7184187  63.9870356  42.5723442 120.9761473
  63.3110993  42.4717571 121.6463848  64.8097989  42.4162656 121.4397470
  55.7349215  48.8095379 113.5973988  56.3202651  48.0639067 113.7301892
  55.5374053  49.1199335 114.4810652  58.5887870  51.8446626 108.6136430
  57.9198245  52.3292754 108.1300470  58.4500740  52.0915847 109.5279809
  50.3266869  41.3800979 112.3178431  50.3650969  40.8464570 113.1115549
  49.8207162  40.8536184 111.6989408  62.7293138  53.8790370 115.2119089
  63.2811446  54.0421991 115.9768174  63.0699332  54.4694807 114.5399113
  67.5804013  48.7051627 121.0667743  68.1243917  49.3181585 120.5722698
  66.9990858  49.2631206 121.5834756  53.9575447  40.1065081 105.3932362
  54.2528888  39.1975759 105.3399416  53.0563483  40.0852821 105.0713365
  65.8661526  51.8272345 112.1982771  65.7412665  51.0262085 111.6893716
  66.5240617  52.3218538 111.7096741  57.4869694  38.1821078 111.3759911
  56.7656280  38.7957045 111.2367384  58.2762950  38.7178842 111.2976557
  67.9296434  49.6281365 113.8262321  66.9826770  49.5086716 113.7540648
  68.2779207  48.7403863 113.9088582  55.6863288  37.7879179 105.5171687
  55.3575995  36.9076558 105.3346793  56.0402659  37.7326847 106.4048077
  64.9342867  49.4234081 110.0266673  64.7867830  48.4950789 110.2074243
  65.7596361  49.4454172 109.5423748  58.8005112  38.0752149 105.8847165
  59.1401184  38.6038070 105.1625774  59.2477232  38.4132555 106.6605732
  68.5376989  50.2462640 111.1131546  69.4623537  50.0405502 110.9755997
  68.3692293  49.9979041 112.0220887  61.4948552  36.4589199 115.3350233
  61.1545373  35.6597012 115.7370913  60.7887559  36.7590910 114.7627066
  62.1465024  33.5438512 113.7877556  62.9691094  33.0698990 113.6656447
  62.3903088  34.3228995 114.2876243  60.7873259  36.5726770 104.0840458
  61.5081621  36.9508023 103.5804175  60.1638563  37.2915647 104.1875436
  64.9304382  37.2771919 105.0198790  65.1467996  38.1596557 104.7187618
  64.4498449  36.8858132 104.2904432  59.6703603  40.2357632 111.5969535
  59.5248184  40.5497935 112.4893816  59.1928807  40.8542533 111.0440434
  61.5299986  37.2260180 111.6450424  61.5161555  36.3301274 111.3082722
  62.2472414  37.2330844 112.2788710  63.3826117  37.6597520 113.6903552
  63.1243894  38.5814591 113.6887882  62.8511157  37.2627955 114.3804016
  68.3272305  50.7648308 106.4693637  68.5009183  50.1994730 105.7167490
  68.8201197  51.5649202 106.2873127  54.1449265  42.7762977 114.5357196
  53.6002733  43.5522785 114.6677470  55.0228615  43.1233781 114.3776317
  60.9336882  36.1074561 106.9137995  61.0552793  35.1791207 107.1128882
  60.6438924  36.1213247 106.0016310  63.8028072  33.7929471 110.0504714
  63.8249769  33.8568804 109.0956694  64.2196131  32.9533980 110.2445221
  74.1811697  43.5284731 108.0883937  74.6242843  42.7792056 107.6903060
  73.3038207  43.5194867 107.7057669  69.3147478  50.0815072 103.5690536
  70.0098383  50.7021765 103.7877850  69.6570628  49.2310423 103.8442913
  71.2138901  47.5314778 105.0977866  71.7390225  47.8702050 104.3727186
  71.1261254  46.5961793 104.9141001  62.8758950  51.4448851 117.2267743
  63.1846076  51.1997998 118.0990443  63.6734432  51.6495490 116.7386613
  62.8979562  53.5986761 109.4573119  62.4584552  53.1063140 110.1505976
  63.6487679  53.0559728 109.2165195  55.3771901  49.7898302 109.4597748
  56.2029921  49.4902074 109.0796391  55.0265953  49.0205924 109.9087536
  60.3453434  49.1424770 111.5295421  59.7233443  48.4795475 111.2297649
  61.0158301  49.1685902 110.8469069  53.5780506  47.7084628 110.4186681
  52.7412414  47.2806802 110.2370682  53.5504151  47.9017071 111.3557472
  70.9032807  48.1647681 120.4029064  70.1128351  48.1471820 119.8633564
  70.6666162  48.7035975 121.1578101  71.0230682  45.0140148 117.7161793
  71.0728687  44.8490155 118.6577316  70.9144605  44.1467407 117.3259674
  59.9066941  47.6928693 105.0053882  60.0555061  48.3764158 104.3520554
  60.7133384  47.6733783 105.5203337  68.3134445  40.9971076 119.0321099
  69.2144307  40.8577540 118.7405097  68.3882419  41.1625530 119.9719277
  62.6477250  38.3737930 117.8774286  61.7780559  38.6671496 117.6056874
  62.8836730  38.9578375 118.5981549  72.5248879  47.4337089 117.9603814
  72.2333687  47.7967070 118.7967275  71.9121010  46.7204097 117.7817146
  73.7244561  44.9989969 110.4806385  74.5591453  45.4379773 110.6443945
  73.8603690  44.5228622 109.6614630  70.7736067  42.5569704 116.4283872
  71.2490189  42.7497350 115.6202724  69.8501633  42.6128890 116.1827256
  57.6619574  43.7193871 106.0114951  57.4165616  42.8156201 106.2095161
  57.8315488  43.7211021 105.0694429  65.3516284  34.5917547 115.3939706
  65.8698228  35.3278574 115.0686195  64.9971416  34.8981541 116.2286465
  56.9315221  39.4522228 103.5101112  56.2384466  39.5266583 102.8541148
  56.6866973  38.6882572 104.0322629  65.6028878  31.0117830 110.9140603
  65.8830632  30.3441019 111.5401029  66.3879485  31.2046925 110.4015267
  63.4062346  50.1876824 102.4765629  62.8336313  50.8067011 102.0236101
  63.9795140  50.7376185 103.0105551  69.4737736  39.4335464 114.6612178
  70.4255159  39.5333561 114.6824402  69.3041187  38.6413732 115.1710262
  67.4952116  36.5191047 114.8471579  66.9002048  36.7996060 114.1518067
  67.2101812  37.0084948 115.6188320  66.6259606  50.4713974 103.6074211
  67.5590279  50.4059536 103.8107087  66.5382819  51.3070241 103.1488744
  71.9525814  42.6541583 113.7754478  71.9202134  41.7157584 113.9614161
  72.5626438  42.7325620 113.0420302  63.7909145  41.5237636  99.8181682
  64.7368250  41.3943845  99.8870100  63.4123390  40.7852298 100.2951110
  72.1020302  39.4452627 113.8212761  71.5859351  38.6611084 113.6342690
  72.9860251  39.1171344 113.9859280  69.7631029  33.1893642 109.7808573
  69.5655851  32.8808731 110.6651905  70.3730735  33.9155281 109.9106503
  77.7702364  43.7157590 112.9160514  78.5005752  43.4542878 113.4768218
  77.1609309  42.9786312 112.9562582  75.8517661  41.8565453 113.5134966
  75.1250825  41.7221418 112.9051457  75.4364948  42.1642282 114.3191684
  63.6747837  45.5755383 121.2782339  64.5950847  45.7533982 121.4722385
  63.6397420  44.6311428 121.1262038  61.9752062  39.4487613  99.7536567
  61.0683517  39.1520726  99.8299280  62.2528043  39.1517431  98.8870853
  52.8930002  40.7693976 110.2035613  52.5732787  39.9159284 109.9109987
  52.3463431  40.9842554 110.9593581  56.6709910  43.4856417 113.9205120
  56.8895920  44.4173525 113.9393154  57.0835684  43.1264392 114.7059924
  63.5914128  33.9924503 105.9080808  62.7814856  33.6471588 106.2836054
  64.2798545  33.6832046 106.4968420  65.5204676  33.0702549 107.5305105
  66.0735715  33.4898003 108.1895128  65.7574762  32.1438297 107.5728061
  60.7450847  36.3074548  99.8948546  61.6070011  36.6329446 100.1544363
  60.9301191  35.5206044  99.3821612  52.7618262  44.3896888 112.1728735
  52.0681734  43.9750841 111.6598689  53.5091253  44.4317424 111.5762154
  68.8983483  35.1803075 107.0383769  68.3182152  35.8387879 106.6561821
  68.6319416  34.3580419 106.6271187  67.3487049  34.5808132 109.2405089
  67.8486828  34.6924667 108.4319408  67.9922657  34.2769185 109.8805898
  54.6755005  44.3215142 110.0494750  54.6525693  44.4202829 109.0976633
  54.9855641  45.1680292 110.3711916  57.3342383  46.3791297 114.1641364
  58.2885636  46.3475239 114.0971296  57.1354906  45.9181920 114.9791590
  57.9241765  44.9492413 116.7312162  58.7434654  45.4436491 116.7546999
  58.1978573  44.0324381 116.7029729  67.6808361  37.3403165 106.0940117
  66.7934216  37.6252816 105.8760312  68.0962350  37.1796928 105.2467394
  71.0322897  37.3649686 109.8094457  71.8083287  37.8546138 110.0819073
  70.3071031  37.7907740 110.2666326  73.4695456  38.0777305 110.8668397
  74.0639947  37.8373041 110.1561705  73.5422040  37.3584436 111.4941933
  55.6892612  51.9210916 111.1811562  55.5547080  51.1611317 110.6149560
  55.2724674  52.6451816 110.7140351  67.6549385  42.8557701 106.3090407
  67.5984586  43.3126252 105.4698040  68.2077727  42.0948385 106.1313250
  71.4654191  38.6447433 107.1340527  71.2091125  38.2444068 107.9648735
  70.8407059  39.3591227 107.0090666  75.7766529  41.3843506 109.6411818
  75.2166087  41.4536695 110.4143380  75.1710032  41.2084491 108.9211315
  58.8461737  52.8180233 111.3930005  58.7294122  53.7625666 111.2908695
  58.0254184  52.5153795 111.7815804  68.7338272  47.5430369 102.2386597
  69.5683876  47.1111567 102.0564072  68.5722615  47.3712382 103.1663492
  68.3884164  44.0462482 103.6042937  68.3332968  43.8806754 102.6631381
  67.7630219  44.7538515 103.7605126  65.7030071  46.3511394 122.9296499
  66.5721231  46.5252046 122.5683134  65.2236823  47.1705811 122.8072229
  61.6980290  33.5470591 103.1828255  61.6858959  34.4912431 103.3396526
  62.5903712  33.3640737 102.8887716  59.8716252  53.4708495 114.6085933
  60.7743498  53.5032105 114.9252428  59.6453622  52.5408946 114.6232269
  61.6269854  52.2239481 111.2696012  60.6765485  52.2241343 111.1560384
  61.9302340  51.4772216 110.7532046  65.5132409  30.1413368 107.4374192
  64.7464805  29.5871854 107.5830874  65.9243114  30.2135236 108.2988343
  77.3622547  58.0600020 112.3341774  78.0000957  57.9406767 111.6305114
  77.2443390  59.0080864 112.3929726  74.1712253  58.0127448 112.2703299
  73.8330765  57.8968513 111.3823834  75.0402022  57.6118613 112.2504305
  70.0299069  59.8662924 108.2600190  69.4663934  59.7752861 107.4916477
  69.9151464  59.0462829 108.7402682  74.6532036  59.1662300 118.2289504
  74.6420677  58.7715098 117.3570008  74.8152676  58.4328372 118.8223276
  67.5763501  61.3614116 111.0984410  68.3684793  61.0204941 110.6830709
  67.8160151  61.4709091 112.0186563  75.6098628  63.5333892 103.5714655
  74.9586608  64.1187973 103.1848668  76.4042991  64.0640087 103.6309692
  69.5354255  60.6223029 103.9701789  70.3085131  60.0752016 103.8314665
  69.8879654  61.4867279 104.1816250  71.3739298  61.9499412 117.1768688
  71.0829163  62.8545042 117.0615355  72.0096282  61.9915939 117.8912758
  72.2995504  59.3276260 113.7670048  72.8959077  59.1032282 113.0527011
  72.3570476  58.5861006 114.3695496  71.8720533  56.7815695 101.6020239
  72.1246053  56.2597217 100.8403702  70.9345092  56.6181841 101.7046922
  76.9163816  55.7851474 109.4094982  77.7026905  55.3670897 109.0585399
  77.1802520  56.6897566 109.5776630  77.0873893  61.2224324 104.1083639
  76.4519726  61.2958951 104.8204544  76.7571299  61.8117923 103.4302718
  82.3172243  55.7226707 110.3127961  83.0497415  55.1525924 110.5465790
  81.5611598  55.3348307 110.7534466  71.5916821  58.6843801 103.8044614
  71.4753080  58.0088705 104.4725698  71.7019081  58.1976175 102.9876767
  73.9348362  58.1453948 107.5091303  73.5706570  57.6184569 108.2204225
  74.7915478  57.7552417 107.3357788  79.8397663  49.4348281 114.7722569
  79.5080988  50.3043692 114.5483784  79.2443276  49.1184565 115.4516600
  73.5753849  53.1743848 102.5052652  73.7428252  54.0424085 102.8723123
  73.3851018  53.3371130 101.5813941  76.3329183  61.6360827 114.1718482
  76.0329906  62.5385866 114.0634289  75.9880242  61.3693010 115.0239635
  69.7841664  58.0874624 110.2055186  68.8592161  57.9550838 110.4132878
  70.0326077  58.8668843 110.7025129  79.7326326  54.1543367 111.8515919
  78.8243204  54.0858776 111.5574680  79.6813922  54.6315312 112.6797745
  73.5543070  55.6301506 103.4899318  73.4342695  56.0758556 104.3284799
  72.8595659  55.9786823 102.9312857  67.1450475  57.7307897 111.0398975
  67.2742856  57.9842376 111.9538387  66.4647926  58.3235605 110.7203631
  71.3149962  68.4005147 107.1389450  71.2373992  69.3512972 107.2177930
  70.7111606  68.0551020 107.7964376  73.8067192  55.5733013 119.7950817
  73.0300526  56.1326933 119.7853681  74.4457755  56.0589796 120.3165687
  81.5987973  52.3559806 113.6293793  80.9562353  52.6492339 112.9833588
  81.0942901  52.2412726 114.4346990  79.2528136  56.1022979 104.3179652
  80.1645993  56.3350366 104.1427350  78.7437784  56.6860023 103.7554731
  72.0613564  58.3818466 119.3568784  72.8028249  58.9203510 119.0803607
  71.3550550  59.0084755 119.5140335  77.5368904  60.5247607 117.9540945
  77.9452260  60.0830017 117.2095577  76.8146166  59.9500234 118.2075138
  73.8899974  55.4620213 115.3274502  74.7361169  55.8859627 115.4709151
  73.8298612  54.8053838 116.0213065  77.8597719  61.0848797 111.7093234
  77.2306581  61.2494511 111.0069302  77.4723381  61.4990407 112.4804198
  81.7386951  62.0203235 109.0637598  81.0537989  62.4002136 108.5134631
  81.8230800  62.6298562 109.7969545  77.0399419  53.1224582 116.9855676
  76.7960351  53.8766642 116.4489951  77.3159350  53.5009929 117.8202923
  78.9937882  59.6663194 115.6632941  79.2054777  60.3094954 114.9867322
  78.9467630  58.8325511 115.1954871  76.5964111  52.2781015 112.5669513
  75.7348590  52.5762268 112.8586251  76.6226546  52.4951414 111.6350546
  73.4125681  60.8223205 108.9743319  73.8764026  61.1010908 108.1847942
  73.1482479  59.9206650 108.7916410  70.3049762  60.3694687 111.9123082
  70.8751119  60.7981955 111.2740567  70.8957874  60.0877272 112.6107268
  72.3494567  56.9446358 105.7832884  73.0518610  57.3967401 106.2506811
  72.0175195  56.3030177 106.4112777  70.7974928  55.5358114 120.1584094
  70.1673589  56.2174395 120.3919490  70.6911016  55.4241196 119.2137232
  66.0919901  55.2029910 111.0850018  65.3018955  55.4587439 110.6090128
  66.5831148  56.0178248 111.1902058  80.1083710  62.5435150 113.8355299
  80.9301154  62.1415337 113.5537980  80.1046113  62.4403384 114.7871414
  68.0434646  55.5674490 108.0433494  67.2465809  55.6793184 108.5616990
  67.8160238  55.9061142 107.1774385  73.8740314  62.0919193 115.9916009
  73.9384746  62.5539600 116.8274181  73.1651238  61.4616558 116.1198319
  64.3757604  55.4560401 113.5165009  64.6265642  56.3407411 113.7822584
  64.9117152  55.2765002 112.7440100  88.1989703  58.8873898 110.1840270
  87.4453412  58.3181296 110.0284274  88.3337244  58.8536563 111.1310905
  73.5888331  63.7587300 105.8594989  73.4534006  64.6038836 106.2879837
  74.1298144  63.9606578 105.0960923  70.0755671  49.8378880 122.5209345
  69.6822617  49.2845079 123.1956989  70.8921811  50.1489459 122.9115862
  67.0417729  61.2762738 106.4322914  67.5542249  62.0705989 106.5828479
  67.6940442  60.5789029 106.3656516  68.8512613  64.3928495 108.5145668
  69.0279242  65.3146459 108.3266652  69.6469447  64.0786914 108.9440047
  72.9923632  51.2536759 120.1129601  73.7333345  51.8543912 120.0334064
  73.2241555  50.5114397 119.5547644  68.1364970  56.4393127 118.3907831
  68.0218485  55.5378384 118.6914930  67.2809488  56.6856823 118.0392647
  69.9743929  65.9106668 114.5156010  70.5251354  65.7823732 113.7433004
  69.1355405  66.2101557 114.1650903  73.7711100  62.1757796 118.8600241
  74.3039437  61.4146084 118.6299549  73.2425181  61.8831448 119.6024396
  76.9380795  47.2817862 114.3893883  76.5945064  48.1719504 114.3132993
  77.3059757  47.0919520 113.5263468  65.0066645  59.6051393 107.2082485
  65.8441867  60.0148401 106.9916193  65.1844913  58.6650835 107.1782679
  76.9031078  57.2726473 102.8966318  76.3877701  58.0431078 103.1354705
  76.6308386  56.5991609 103.5199379  74.4878189  52.1176174 107.9551556
  73.6319785  51.7283025 107.7757195  74.9005140  52.1968135 107.0951342
  76.0177335  49.6522517 112.3543116  75.5142131  49.6152653 111.5410921
  76.3107942  50.5615260 112.4139773  72.2620221  49.7361247 111.3609298
  73.1273218  49.5404056 111.0015187  72.3297730  49.5071599 112.2878655
  81.8765352  60.0258828 104.8319491  81.0994794  59.6869987 104.3874654
  82.5556833  60.0311451 104.1574456  76.6917381  55.1453565 104.7226099
  76.3867516  55.4599715 105.5736242  77.6447823  55.2234985 104.7653432
  75.1363813  61.3043789 106.3719053  74.6085174  60.5696548 106.0592291
  74.6351315  62.0818465 106.1259021  80.1156659  59.4992809 111.4886099
  79.4580333  60.1892071 111.5766228  80.9197058  59.8889241 111.8320086
  69.8682540  51.9663455 108.7325665  70.4426292  51.7438637 107.9998858
  70.4553523  52.0352150 109.4854266  78.9262117  57.8537182 109.5390041
  79.4393999  58.4867174 110.0411751  79.5763341  57.2538377 109.1733401
  70.1952127  53.9967916 102.7521550  69.3589440  54.3342603 103.0730825
  70.0556897  53.8616896 101.8148687  72.1705208  48.8404704 107.4600734
  71.5169620  48.5253721 106.8357349  72.1285682  48.2180444 108.1860557
  73.2816413  59.1223999  99.3754026  72.3743475  58.8913252  99.5745175
  73.7787445  58.3261618  99.5628008  76.1884492  67.8321506 102.2950712
  75.5146190  68.1353203 102.9035670  76.5750314  68.6350587 101.9456169
  75.4042948  55.3286637 111.7848382  74.4865510  55.5501584 111.6270070
  75.8203092  55.4032948 110.9260089  76.1877996  56.7278053 106.9151062
  76.9349815  57.2399450 106.6058184  76.4569586  56.4062106 107.7755456
  74.4604646  59.2236594 103.8978016  73.5515865  58.9395627 103.9950486
  74.4899730  59.6435672 103.0381323  79.6923914  62.8343183 107.6669184
  79.2386241  61.9934093 107.7234374  79.0617880  63.4704582 108.0043964
  78.6356833  53.7635169 108.8969851  77.8979590  53.2512556 109.2280094
  78.8883607  53.3235551 108.0853128  78.1356853  64.6719680 108.6019002
  78.4279827  65.2324737 107.8831368  78.6455473  64.9648241 109.3572161
  78.7368461  46.5411421 109.4911621  79.0427337  45.6808785 109.2037536
  79.4621065  47.1329042 109.2910614  65.0292817  56.9442108 107.8793218
  64.8317216  56.3511469 107.1544285  64.4739481  56.6394318 108.5969157
  73.0089540  56.8365214 109.9987812  73.0638150  55.8839051 109.9230288
  72.1980742  56.9924654 110.4829110  74.1580734  60.7645338 101.2366095
  73.7200164  60.0481196 100.7771732  74.8991175  60.9921452 100.6751186
  70.9481900  55.4542274 107.7578190  70.1349766  55.7536445 108.1643383
  71.4440894  55.0597963 108.4752673  73.0990478  65.4500031 109.6912455
  73.0566657  65.6760877 108.7620987  74.0153177  65.2163406 109.8398256
  76.5456112  55.9184099 116.5893084  76.9005500  56.1455572 117.4487550
  77.1928243  56.2502475 115.9670340  82.2753849  59.0402535 107.2942413
  82.1371747  59.2304131 106.3663603  81.9190068  59.8021917 107.7510465
  70.4395975  53.0260630 113.3739425  71.0795354  52.8849389 112.6762389
  69.6073505  52.7395143 112.9978027  82.3023228  61.1079062 112.3053685
  82.7359735  61.0154351 113.1536739  83.0154809  61.0836562 111.6673701
  71.2156279  62.3263060 109.4874418  72.0096877  61.8313380 109.2856993
  70.5047971  61.7980923 109.1242123  76.0351123  64.7081156 113.8386785
  76.0888146  65.2772092 114.6064501  75.1665905  64.8783041 113.4740823
  67.5239042  56.4706142 105.5634171  66.5936630  56.4090597 105.7804133
  67.6196514  55.9482095 104.7670812  67.4424591  52.9960955 108.1512412
  67.7031409  53.9106288 108.0421573  68.2641764  52.5285397 108.3009025
  68.9149517  54.4098712 115.3211237  69.5872570  54.2016074 114.6723886
  68.0879303  54.2120798 114.8816469  83.1638778  61.1502762 114.8386570
  83.3574668  62.0548573 115.0845845  83.0639396  60.6910181 115.6725155
  74.8175089  51.0360653 117.3376898  74.1703004  51.7350602 117.2441374
  75.5876104  51.4696797 117.7053146  74.9939223  58.8741418 115.3973717
  75.9231283  59.0252577 115.2242685  74.5730253  58.9625439 114.5422364
  73.7927555  62.8992082 113.1672255  73.6538641  62.5310867 114.0398193
  73.0042151  63.4139722 112.9956213  74.3875707  68.0001179 104.5097791
  74.5627463  67.5289222 105.3243414  73.7008495  68.6266945 104.7379052
  75.3432770  62.2773685 110.5561093  75.0082603  62.2374455 111.4518743
  74.8436716  61.6118401 110.0831503  69.3177014  57.6841315 116.0813674
  69.1796812  56.9521554 116.6825213  70.2281937  57.5950215 115.7997862
  78.2791962  59.6229719 100.8298152  77.6621132  58.8976547 100.7331205
  77.8108450  60.3839079 100.4865227  71.9459315  57.3961274 115.5697354
  72.6558933  56.7554466 115.5283972  71.9028623  57.6474169 116.4923534
  70.6588249  54.3826492 117.3892993  70.1225606  53.9317231 118.0414589
  70.0704957  54.5172401 116.6463457  68.9536792  71.1490541 111.2837652
  69.1933390  71.7809066 111.9616670  68.1105989  70.7978581 111.5703011
  70.0690508  53.8415143  99.9519457  69.1919974  53.7203944  99.5881703
  70.5448261  53.0501222  99.6998345  79.9363501  62.2968211 116.7217912
  79.0490279  61.9594133 116.8444311  80.5062052  61.5651243 116.9586678
  61.5892648  58.6292303 110.0460964  62.2763688  58.3154033 109.4581979
  61.4340776  59.5333668 109.7728215  66.3927370  53.5182500 114.4745988
  66.3085559  52.9108169 113.7396397  65.5710076  54.0091518 114.4755484
  73.4664654  66.9569664 113.6879156  73.3934825  67.7624635 114.1998460
  73.0242047  67.1561630 112.8627177  73.2554434  66.1941434 107.1981977
  72.4721955  66.7363114 107.2920202  73.9547179  66.7115413 107.5976218
  76.5651084  52.0036063 109.8416183  77.0619783  51.2506026 109.5217253
  75.7938065  52.0400380 109.2759392  84.4180841  57.7076429 111.4834474
  84.4070717  58.5901144 111.1128407  83.5498221  57.3547980 111.2889011
  77.6480864  60.7607751 107.4154606  76.7137143  60.8809213 107.2459310
  77.8257533  59.8580217 107.1514616  73.1486052  54.1453446 109.5687867
  72.7783840  53.5924487 110.2568773  73.6445145  53.5411580 109.0162867
  81.0353416  56.6025070 107.9504640  81.5013868  57.4353061 107.8764943
  81.4860916  56.1370051 108.6549899  70.9775251  64.6050941 116.6642885
  71.6784711  65.2387424 116.8172279  70.5070366  64.9465673 115.9038524
  79.1029647  62.9468891 104.9490792  79.3789491  62.8325486 105.8584666
  78.2334146  62.5486376 104.9102965  79.0070078  48.9705657 111.9895541
  78.0933158  49.2009884 112.1577748  79.4363180  49.0544101 112.8409574
  78.7776537  57.1595549 114.4895435  78.1247987  57.4071456 113.8347888
  79.1556917  56.3459687 114.1557913  75.7383711  67.1955242 108.5923606
  75.9206105  66.3776898 109.0551358  76.5616697  67.4122934 108.1548496
  76.0725876  66.1223427 105.8538654  76.6013643  65.6115882 105.2408816
  76.3354096  65.8065957 106.7184187  74.8264110  57.9015360 120.9761473
  74.1504747  57.8009489 121.6463848  75.6491744  57.7454574 121.4397470
  66.5742969  64.1387296 113.5973988  67.1596406  63.3930984 113.7301892
  66.3767808  64.4491253 114.4810652  69.4281624  67.1738544 108.6136430
  68.7592000  67.6584671 108.1300470  69.2894494  67.4207764 109.5279809
  61.1660624  56.7092897 112.3178431  61.2044723  56.1756487 113.1115549
  60.6600917  56.1828102 111.6989408  68.5451386  51.5557437 115.8140973
  68.6092713  52.4172268 115.4018371  68.4818506  50.9431439 115.0813332
  68.0203659  53.6280570 119.4614008  68.6475697  53.2457647 120.0751532
  67.1631577  53.4094772 119.8269700  64.7969201  55.4356999 105.3932362
  65.0922642  54.5267677 105.3399416  63.8957237  55.4144738 105.0713365
  76.7055280  67.1564263 112.1982771  76.5806420  66.3554003 111.6893716
  77.3634371  67.6510456 111.7096741  68.3263448  53.5112995 111.3759911
  67.6050034  54.1248963 111.2367384  69.1156704  54.0470760 111.2976557
  78.7690189  64.9573283 113.8262321  77.8220524  64.8378634 113.7540648
  79.1172962  64.0695781 113.9088582  71.1289762  50.8467422 117.6500563
  71.6524164  51.0929718 118.4126872  70.9102095  51.6787457 117.2303700
  66.5257043  53.1171096 105.5171687  66.1969749  52.2368475 105.3346793
  66.8796414  53.0618765 106.4048077  75.7736622  64.7525999 110.0266673
  75.6261584  63.8242707 110.2074243  76.5990115  64.7746090 109.5423748
  69.6398866  53.4044066 105.8847165  69.9794939  53.9329987 105.1625774
  70.0870987  53.7424472 106.6605732  79.3770744  65.5754558 111.1131546
  80.3017291  65.3697419 110.9755997  79.2086047  65.3270959 112.0220887
  72.3342307  51.7881117 115.3350233  71.9939127  50.9888930 115.7370913
  71.6281313  52.0882828 114.7627066  72.9858779  48.8730429 113.7877556
  73.8084848  48.3990908 113.6656447  73.2296842  49.6520913 114.2876243
  71.6267013  51.9018688 104.0840458  72.3475376  52.2799941 103.5804175
  71.0032317  52.6207565 104.1875436  75.7698136  52.6063837 105.0198790
  75.9861751  53.4888475 104.7187618  75.2892203  52.2150050 104.2904432
  70.5097358  55.5649550 111.5969535  70.3641938  55.8789853 112.4893816
  70.0322561  56.1834450 111.0440434  72.3693740  52.5552098 111.6450424
  72.3555309  51.6593191 111.3082722  73.0866169  52.5622762 112.2788710
  74.2219871  52.9889438 113.6903552  73.9637649  53.9106509 113.6887882
  73.6904912  52.5919873 114.3804016  79.1666060  66.0940225 106.4693637
  79.3402937  65.5286648 105.7167490  79.6594951  66.8941120 106.2873127
  64.9843020  58.1054894 114.5357196  64.4396488  58.8814702 114.6677470
  65.8622370  58.4525699 114.3776317  71.7730636  51.4366478 106.9137995
  71.8946548  50.5083124 107.1128882  71.4832679  51.4505164 106.0016310
  74.6421827  49.1221389 110.0504714  74.6643524  49.1860722 109.0956694
  75.0589886  48.2825897 110.2445221  85.0205451  58.8576648 108.0883937
  85.4636597  58.1083973 107.6903060  84.1431961  58.8486785 107.7057669
  80.1541232  65.4106990 103.5690536  80.8492137  66.0313682 103.7877850
  80.4964383  64.5602341 103.8442913  65.7709042  57.2324791 117.4287353
  65.0290778  57.3807426 118.0151983  65.4501786  57.4933056 116.5654102
  82.0532656  62.8606695 105.0977866  82.5783980  63.1993968 104.3727186
  81.9655008  61.9253711 104.9141001  73.7373316  68.9278679 109.4573119
  73.2978307  68.4355057 110.1505976  74.4881433  68.3851646 109.2165195
  66.2165655  65.1190219 109.4597748  67.0423675  64.8193991 109.0796391
  65.8659707  64.3497842 109.9087536  71.1847188  64.4716688 111.5295421
  70.5627198  63.8087393 111.2297649  71.8552055  64.4977819 110.8469069
  64.4174260  63.0376546 110.4186681  63.5806169  62.6098720 110.2370682
  64.3897906  63.2308989 111.3557472  71.2571716  52.9498476 121.1227927
  71.3059871  53.8260598 120.7405697  71.7994230  52.4075869 120.5499570
  70.7460695  63.0220611 105.0053882  70.8948816  63.7056075 104.3520554
  71.5527139  63.0025701 105.5203337  79.1528199  56.3262993 119.0321099
  80.0538062  56.1869458 118.7405097  79.2276174  56.4917448 119.9719277
  73.4871004  53.7029848 117.8774286  72.6174314  53.9963414 117.6056874
  73.7230485  54.2870293 118.5981549  84.5638316  60.3281887 110.4806385
  85.3985207  60.7671691 110.6443945  84.6997445  59.8520540 109.6614630
  81.6129822  57.8861621 116.4283872  82.0883943  58.0789268 115.6202724
  80.6895387  57.9420807 116.1827256  68.5013328  59.0485789 106.0114951
  68.2559370  58.1448119 106.2095161  68.6709243  59.0502939 105.0694429
  76.1910038  49.9209465 115.3939706  76.7091982  50.6570492 115.0686195
  75.8365171  50.2273458 116.2286465  67.7708976  54.7814146 103.5101112
  67.0778221  54.8558501 102.8541148  67.5260728  54.0174490 104.0322629
  76.4422632  46.3409747 110.9140603  76.7224386  45.6732937 111.5401029
  77.2273239  46.5338843 110.4015267  74.2456101  65.5168741 102.4765629
  73.6730068  66.1358929 102.0236101  74.8188895  66.0668103 103.0105551
  80.3131491  54.7627381 114.6612178  81.2648914  54.8625479 114.6824402
  80.1434941  53.9705650 115.1710262  78.3345870  51.8482965 114.8471579
  77.7395802  52.1287977 114.1518067  78.0495567  52.3376866 115.6188320
  77.4653361  65.8005892 103.6074211  78.3984034  65.7351453 103.8107087
  77.3776573  66.6362158 103.1488744  80.0941377  65.1171762 100.5678159
  80.0155009  64.7831625 101.4613917  80.9151044  65.6093530 100.5669631
  82.7919568  57.9833501 113.7754478  82.7595889  57.0449502 113.9614161
  83.4020192  58.0617538 113.0420302  74.6302899  56.8529554  99.8181682
  75.5762004  56.7235762  99.8870100  74.2517144  56.1144216 100.2951110
  82.9414057  54.7744545 113.8212761  82.4253106  53.9903001 113.6342690
  83.8254005  54.4463261 113.9859280  80.6024784  48.5185560 109.7808573
  80.4049605  48.2100648 110.6651905  81.2124489  49.2447199 109.9106503
  88.6096118  59.0449508 112.9160514  89.3399507  58.7834796 113.4768218
  88.0003064  58.3078230 112.9562582  86.6911415  57.1857371 113.5134966
  85.9644579  57.0513336 112.9051457  86.2758702  57.4934199 114.3191684
  72.8145816  54.7779531  99.7536567  71.9077272  54.4812643  99.8299280
  73.0921798  54.4809349  98.8870853  63.7323757  56.0985894 110.2035613
  63.4126541  55.2451202 109.9109987  63.1857185  56.3134472 110.9593581
  67.5103664  58.8148335 113.9205120  67.7289674  59.7465443 113.9393154
  67.9229438  58.4556309 114.7059924  74.4307882  49.3216420 105.9080808
  73.6208611  48.9763505 106.2836054  75.1192299  49.0123964 106.4968420
  76.3598431  48.3994467 107.5305105  76.9129469  48.8189920 108.1895128
  76.5968517  47.4730215 107.5728061  72.3831530  54.3881541 123.3107869
  72.2828257  55.3375898 123.2419960  72.1653072  54.0599780 122.4383939
  63.6012017  59.7188805 112.1728735  62.9075488  59.3042758 111.6598689
  64.3485008  59.7609342 111.5762154  79.7377238  50.5094992 107.0383769
  79.1575907  51.1679796 106.6561821  79.4713170  49.6872337 106.6271187
  78.1880804  49.9100050 109.2405089  78.6880582  50.0216584 108.4319408
  78.8316412  49.6061103 109.8805898  72.2462800  57.8178680 122.1272930
  71.7629881  58.6179040 122.3336819  72.3323739  57.8286624 121.1740374
  65.5148759  59.6507059 110.0494750  65.4919448  59.7494746 109.0976633
  65.8249396  60.4972210 110.3711916  68.1736137  61.7083214 114.1641364
  69.1279391  61.6767157 114.0971296  67.9748661  61.2473838 114.9791590
  68.7635519  60.2784330 116.7312162  69.5828408  60.7728409 116.7546999
  69.0372327  59.3616298 116.7029729  78.5202116  52.6695083 106.0940117
  77.6327971  52.9544733 105.8760312  78.9356105  52.5088846 105.2467394
  81.8716652  52.6941604 109.8094457  82.6477042  53.1838056 110.0819073
  81.1464786  53.1199658 110.2666326  84.3089210  53.4069223 110.8668397
  84.9033701  53.1664959 110.1561705  84.3815794  52.6876353 111.4941933
  66.5286366  67.2502834 111.1811562  66.3940834  66.4903235 110.6149560
  66.1118428  67.9743734 110.7140351  77.6645329  62.4339757 100.1888137
  78.3681179  62.6389760 100.8045793  76.9407978  63.0016519 100.4537221
  78.4943139  58.1849619 106.3090407  78.4378341  58.6418170 105.4698040
  79.0471482  57.4240303 106.1313250  82.3047945  53.9739350 107.1340527
  82.0484880  53.5735986 107.9648735  81.6800813  54.6883144 107.0090666
  86.6160283  56.7135424 109.6411818  86.0559841  56.7828613 110.4143380
  86.0103786  56.5376408 108.9211315  69.6855492  68.1472151 111.3930005
  69.5687876  69.0917583 111.2908695  68.8647938  67.8445712 111.7815804
  79.5732026  62.8722286 102.2386597  80.4077630  62.4403485 102.0564072
  79.4116369  62.7004300 103.1663492  79.2277919  59.3754400 103.6042937
  79.1726722  59.2098671 102.6631381  78.6023974  60.0830433 103.7605126
  64.0170434  54.6122464 117.4304359  64.6629297  54.1021418 117.9191584
  63.8087585  55.3491146 118.0047784  72.5374044  48.8762509 103.1828255
  72.5252714  49.8204349 103.3396526  73.4297466  48.6932654 102.8887716
  70.7110006  68.8000413 114.6085933  71.6137253  68.8324023 114.9252428
  70.4847376  67.8700864 114.6232269  72.4663608  67.5531399 111.2696012
  71.5159239  67.5533261 111.1560384  72.7696094  66.8064134 110.7532046
  76.3526164  45.4705285 107.4374192  75.5858559  44.9163772 107.5830874
  76.7636869  45.5427154 108.2988343  68.3567925  51.7590081 121.5279373
  69.2199386  51.4026886 121.7382698  67.7833335  51.4203976 122.2154777
  80.8692824  75.1954842 108.2600190  80.3057689  75.1044779 107.4916477
  80.7545219  74.3754747 108.7402682  86.4492382  78.8625810 103.5714655
  85.7980362  79.4479890 103.1848668  87.2436745  79.3932005 103.6309692
  80.3748009  75.9514947 103.9701789  81.1478885  75.4043934 103.8314665
  80.7273408  76.8159196 104.1816250  82.7114287  72.1107613 101.6020239
  82.9639808  71.5889134 100.8403702  81.7738846  71.9473758 101.7046922
  87.9267647  76.5516242 104.1083639  87.2913480  76.6250868 104.8204544
  87.5965054  77.1409841 103.4302718  82.4310576  74.0135719 103.8044614
  82.3146834  73.3380622 104.4725698  82.5412836  73.5268093 102.9876767
  84.7742117  73.4745866 107.5091303  84.4100324  72.9476487 108.2204225
  85.6309233  73.0844335 107.3357788  84.4147604  68.5035766 102.5052652
  84.5822006  69.3716002 102.8723123  84.2244773  68.6663048 101.5813941
  84.3936825  70.9593423 103.4899318  84.2736450  71.4050474 104.3284799
  83.6989413  71.3078741 102.9312857  90.0921891  71.4314896 104.3179652
  91.0039747  71.6642283 104.1427350  89.5831538  72.0151941 103.7554731
  83.1888321  72.2738275 105.7832884  83.8912365  72.7259319 106.2506811
  82.8568950  71.6322094 106.4112777  76.9313655  70.5321828 111.0850018
  76.1412709  70.7879357 110.6090128  77.4224902  71.3470166 111.1902058
  78.8828401  70.8966407 108.0433494  78.0859564  71.0085102 108.5616990
  78.6553993  71.2353060 107.1774385  77.8811483  76.6054656 106.4322914
  78.3936004  77.3997906 106.5828479  78.5334196  75.9080947 106.3656516
  75.8460400  74.9343310 107.2082485  76.6835622  75.3440319 106.9916193
  76.0238668  73.9942753 107.1782679  87.7424832  72.6018391 102.8966318
  87.2271456  73.3722996 103.1354705  87.4702141  71.9283527 103.5199379
  85.3271943  67.4468092 107.9551556  84.4713539  67.0574942 107.7757195
  85.7398895  67.5260053 107.0951342  83.1013976  65.0653165 111.3609298
  83.9666972  64.8695973 111.0015187  83.1691485  64.8363517 112.2878655
  87.5311135  70.4745483 104.7226099  87.2261271  70.7891632 105.5736242
  88.4841577  70.5526903 104.7653432  85.9757567  76.6335706 106.3719053
  85.4478929  75.8988466 106.0592291  85.4745070  77.4110383 106.1259021
  80.7076295  67.2955373 108.7325665  81.2820047  67.0730554 107.9998858
  81.2947277  67.3644067 109.4854266  81.0345882  69.3259834 102.7521550
  80.1983194  69.6634520 103.0730825  80.8950651  69.1908814 101.8148687
  83.0098962  64.1696622 107.4600734  82.3563375  63.8545639 106.8357349
  82.9679437  63.5472362 108.1860557  84.1210167  74.4515917  99.3754026
  83.2137229  74.2205170  99.5745175  84.6181199  73.6553536  99.5628008
  87.0271751  72.0569971 106.9151062  87.7743569  72.5691368 106.6058184
  87.2963340  71.7354024 107.7755456  85.2998401  74.5528512 103.8978016
  84.3909620  74.2687544 103.9950486  85.3293485  74.9727590 103.0381323
  89.4750588  69.0927087 108.8969851  88.7373344  68.5804473 109.2280094
  89.7277361  68.6527469 108.0853128  89.5762215  61.8703339 109.4911621
  89.8821092  61.0100703 109.2037536  90.3014820  62.4620959 109.2910614
  75.8686571  72.2734026 107.8793218  75.6710971  71.6803386 107.1544285
  75.3133235  71.9686236 108.5969157  84.9974489  76.0937255 101.2366095
  84.5593918  75.3773114 100.7771732  85.7384929  76.3213370 100.6751186
  81.7875655  70.7834192 107.7578190  80.9743520  71.0828362 108.1643383
  82.2834649  70.3889881 108.4752673  78.3632797  71.7998060 105.5634171
  77.4330385  71.7382515 105.7804133  78.4590269  71.2774012 104.7670812
  78.2818346  68.3252872 108.1512412  78.5425163  69.2398206 108.0421573
  79.1035518  67.8577315 108.3009025  89.1185716  74.9521637 100.8298152
  88.5014887  74.2268465 100.7331205  88.6502205  75.7130997 100.4865227
  80.9084262  69.1707061  99.9519457  80.0313728  69.0495862  99.5881703
  81.3842015  68.3793139  99.6998345  72.4286402  73.9584221 110.0460964
  73.1157442  73.6445951 109.4581979  72.2734531  74.8625586 109.7728215
  77.2321124  68.8474417 114.4745988  77.1479313  68.2400087 113.7396397
  76.4103831  69.3383436 114.4755484  87.4044838  67.3327981 109.8416183
  87.9013538  66.5797943 109.5217253  86.6331820  67.3692298 109.2759392
  83.9879807  69.4745364 109.5687867  83.6177594  68.9216404 110.2568773
  84.4838899  68.8703497 109.0162867  72.0054378  72.0384814 112.3178431
  72.0438478  71.5048405 113.1115549  71.4994671  71.5120020 111.6989408
  75.6362956  70.7648916 105.3932362  75.9316397  69.8559595 105.3399416
  74.7350992  70.7436656 105.0713365  79.1657203  68.8404913 111.3759911
  78.4443789  69.4540881 111.2367384  79.9550459  69.3762678 111.2976557
  77.3650797  68.4463014 105.5171687  77.0363504  67.5660393 105.3346793
  77.7190168  68.3910683 106.4048077  80.4792621  68.7335984 105.8847165
  80.8188693  69.2621905 105.1625774  80.9264741  69.0716390 106.6605732
  82.4660768  67.2310605 104.0840458  83.1869130  67.6091858 103.5804175
  81.8426072  67.9499482 104.1875436  86.6091891  67.9355754 105.0198790
  86.8255505  68.8180392 104.7187618  86.1285958  67.5441968 104.2904432
  83.2087495  67.8844016 111.6450424  83.1949064  66.9885109 111.3082722
  83.9259923  67.8914679 112.2788710  82.6124391  66.7658396 106.9137995
  82.7340302  65.8375042 107.1128882  82.3226433  66.7797082 106.0016310
  85.4815581  64.4513306 110.0504714  85.5037278  64.5152639 109.0956694
  85.8983640  63.6117815 110.2445221  81.5854450  78.3512529 105.0053882
  81.7342570  79.0347993 104.3520554  82.3920893  78.3317619 105.5203337
  79.3407083  74.3777706 106.0114951  79.0953125  73.4740036 106.2095161
  79.5102997  74.3794857 105.0694429  78.6102730  70.1106064 103.5101112
  77.9171975  70.1850419 102.8541148  78.3654482  69.3466407 104.0322629
  87.2816387  61.6701665 110.9140603  87.5618141  61.0024854 111.5401029
  88.0666994  61.8630761 110.4015267  85.0849855  80.8460659 102.4765629
  84.5123822  81.4650846 102.0236101  85.6582649  81.3960021 103.0105551
  90.9335132  80.4463680 100.5678159  90.8548763  80.1123543 101.4613917
  91.7544799  80.9385447 100.5669631  85.4696654  72.1821472  99.8181682
  86.4155759  72.0527680  99.8870100  85.0910899  71.4436134 100.2951110
  91.4418538  63.8477478 109.7808573  91.2443360  63.5392566 110.6651905
  92.0518244  64.5739117 109.9106503  83.6539571  70.1071448  99.7536567
  82.7471026  69.8104561  99.8299280  83.9315552  69.8101266  98.8870853
  74.5717511  71.4277812 110.2035613  74.2520296  70.5743120 109.9109987
  74.0250940  71.6426390 110.9593581  85.2701637  64.6508338 105.9080808
  84.4602365  64.3055423 106.2836054  85.9586054  64.3415882 106.4968420
  87.1992185  63.7286385 107.5305105  87.7523224  64.1481838 108.1895128
  87.4362271  62.8022133 107.5728061  82.4238356  66.9658383  99.8948546
  83.2857520  67.2913282 100.1544363  82.6088700  66.1789879  99.3821612
  74.4405771  75.0480723 112.1728735  73.7469243  74.6334676 111.6598689
  75.1878762  75.0901260 111.5762154  90.5770992  65.8386910 107.0383769
  89.9969661  66.4971714 106.6561821  90.3106925  65.0164254 106.6271187
  89.0274558  65.2391968 109.2405089  89.5274337  65.3508502 108.4319408
  89.6710166  64.9353020 109.8805898  76.3542514  74.9798977 110.0494750
  76.3313202  75.0786664 109.0976633  76.6643150  75.8264128 110.3711916
  89.3595870  67.9987000 106.0940117  88.4721725  68.2836651 105.8760312
  89.7749859  67.8380764 105.2467394  88.5039084  77.7631675 100.1888137
  89.2074934  77.9681677 100.8045793  87.7801732  78.3308437 100.4537221
  89.3336894  73.5141536 106.3090407  89.2772095  73.9710088 105.4698040
  89.8865236  72.7532221 106.1313250  93.1441700  69.3031268 107.1340527
  92.8878634  68.9027904 107.9648735  92.5194568  70.0175062 107.0090666
  90.4125781  78.2014204 102.2386597  91.2471385  77.7695403 102.0564072
  90.2510124  78.0296218 103.1663492  90.0671673  74.7046317 103.6042937
  90.0120477  74.5390589 102.6631381  89.4417728  75.4122350 103.7605126
  83.3767799  64.2054426 103.1828255  83.3646468  65.1496266 103.3396526
  84.2691220  64.0224572 102.8887716  87.1919918  60.7997203 107.4374192
  86.4252314  60.2455690 107.5830874  87.6030623  60.8719072 108.2988343
  47.5760115  -3.8641869  87.2923466  47.4973747  -4.1982005  88.1859223
  48.3969782  -3.3720101  87.2914938  53.9311120   9.8812179  90.2959961
  53.2799100  10.4666260  89.9093975  54.7255483  10.4118374  90.3554999
  47.8566747   6.9701317  90.6947096  48.6297623   6.4230304  90.5559971
  48.2092146   7.8345566  90.9061557  50.1933025   3.1293983  88.3265546
  50.4458546   2.6075504  87.5649009  49.2557584   2.9660128  88.4292229
  55.4086385   7.5702611  90.8328946  54.7732218   7.6437238  91.5449850
  55.0783792   8.1596210  90.1548025  49.9129314   5.0322089  90.5289920
  49.7965572   4.3566992  91.1971005  50.0231574   4.5454463  89.7122074
  51.8966342  -0.4777865  89.2297958  52.0640744   0.3902372  89.5968429
  51.7063511  -0.3150583  88.3059247  51.8755563   1.9779793  90.2144625
  51.7555188   2.4236844  91.0530105  51.1808151   2.3265111  89.6558163
  49.6362455  14.7483435  93.8634756  49.5586484  15.6991260  93.9423237
  49.0324098  14.4029307  94.5209683  57.5740629   2.4501266  91.0424959
  58.4858485   2.6828653  90.8672657  57.0650276   3.0338310  90.4800038
  60.0599443   8.3681522  95.7882904  59.3750481   8.7480424  95.2379938
  60.1443292   8.9776849  96.5214852  51.7338173   7.1701493  95.6988626
  52.1976518   7.4489196  94.9093248  51.4694971   6.2684937  95.5161716
  50.6707059   3.2924645  92.5078191  51.3731102   3.7445689  92.9752117
  50.3387687   2.6508464  93.1358084  66.5202196   5.2352185  96.9085577
  65.7665904   4.6659583  96.7529581  66.6549737   5.2014850  97.8556211
  51.9100824  10.1065588  92.5840296  51.7746498  10.9517123  93.0125144
  52.4510636  10.3084865  91.8206230  45.3630221   7.6241026  93.1568221
  45.8754742   8.4184276  93.3073786  46.0152934   6.9267316  93.0901823
  47.1725106  10.7406782  95.2390974  47.3491734  11.6624747  95.0511958
  47.9681939  10.4265201  95.6685354  55.2243570   3.6204761  89.6211625
  54.7090193   4.3909365  89.8600012  54.9520878   2.9469897  90.2444686
  60.1977844   6.3737115  91.5564798  59.4207287   6.0348275  91.1119960
  60.8769325   6.3789738  90.8819763  55.0129873   1.4931853  91.4471406
  54.7080009   1.8078002  92.2981549  55.9660315   1.5713273  91.4898739
  53.4576305   7.6522076  93.0964360  52.9297666   6.9174836  92.7837597
  52.9563808   8.4296752  92.8504328  58.4369151   5.8471096  98.2131406
  57.7792825   6.5370358  98.3011535  59.2409550   6.2367528  98.5565392
  57.2474610   4.2015469  96.2635348  57.7606491   4.8345461  96.7657058
  57.8975834   3.6016665  95.8978708  48.5164620   0.3446203  89.4766857
  47.6801932   0.6820890  89.7976131  48.3769389   0.2095183  88.5393994
  51.6028905   5.4702286  86.0999333  50.6955967   5.2391540  86.2990482
  52.0999937   4.6739906  86.2873314  54.5096984  14.1799793  89.0196019
  53.8358683  14.4831490  89.6280977  54.8962806  14.9828874  88.6701476
  54.5090488   3.0756340  93.6396369  55.2562307   3.5877738  93.3303491
  54.7782078   2.7540393  94.5000762  52.7817138   5.5714881  90.6223323
  51.8728358   5.2873914  90.7195793  52.8112222   5.9913960  89.7626630
  58.0136406   9.1821471  94.3914490  57.5598733   8.3412380  94.4479681
  57.3830373   9.8182869  94.7289271  56.4569345  11.0197967  95.3264309
  56.7492320  11.5803024  94.6076674  56.9667966  11.3126528  96.0817468
  52.4793226   7.1123625  87.9611401  52.0412656   6.3959484  87.5017039
  53.2203667   7.3399740  87.3996493  51.4202970  11.7978318  96.4157762
  51.3779149  12.0239165  95.4866294  52.3365669  11.5641693  96.5643563
  60.5966341   5.3880822  94.0187720  60.4584240   5.5782418  93.0908909
  60.2402560   6.1500205  94.4755771  60.6235721   7.4557349  99.0298992
  61.0572227   7.3632638  99.8782046  61.3367301   7.4314849  98.3919008
  49.5368771   8.6741347  96.2119725  50.3309370   8.1791668  96.0102299
  48.8260464   8.1459211  95.8487430  52.7088199  14.3479466  91.2343098
  52.8839955  13.8767509  92.0488721  52.0220987  14.9745232  91.4624359
  56.6004454   5.9708006  87.5543459  55.9833625   5.2454835  87.4576512
  56.1320942   6.7317367  87.2110533  47.2749284  17.4968829  98.0082958
  47.5145883  18.1287353  98.6861977  46.4318481  17.1456869  98.2948318
  48.3903000   0.1893431  86.6764763  47.5132466   0.0682232  86.3127010
  48.8660753  -0.6020491  86.4243652  51.5766926  12.5419721  93.9227284
  50.7934448  13.0841401  94.0165508  52.2759671  13.0593701  94.3221525
  62.7393333   4.0554716  98.2079781  62.7283210   4.9379432  97.8373714
  61.8710713   3.7026267  98.0134318  55.9693357   7.1086038  94.1399913
  55.0349635   7.2287500  93.9704617  56.1470025   6.2058505  93.8759922
  59.3565908   2.9503357  94.6749947  59.8226360   3.7831349  94.6010249
  59.8073409   2.4848339  95.3795205  57.4242139   9.2947178  91.6736099
  57.7001983   9.1803773  92.5829973  56.5546638   8.8964663  91.6348272
  54.0596203  13.5433529  95.3168912  54.2418598  12.7255185  95.7796665
  54.8829189  13.7601221  94.8793802  54.3938369  12.4701714  92.5783961
  54.9226135  11.9594169  91.9654123  54.6566588  12.1544245  93.4429494
  47.7494117  13.5216831  95.3381737  47.0804492  14.0062959  94.8545777
  47.6106986  13.7686051  96.2525115  55.0267772  13.5042550  98.9228077
  54.9018912  12.7032290  98.4139023  55.6846864  13.9988743  98.4342047
  57.0902681  11.3051570 100.5507627  56.1433016  11.1856921 100.4785954
  57.4385454  10.4174068 100.6333889  54.0949114  11.1004286  96.7511980
  53.9474077  10.1720994  96.9319550  54.9202608  11.1224377  96.2669055
  57.6983236  11.9232845  97.8376852  58.6229783  11.7175706  97.7001304
  57.5298539  11.6749246  98.7466194  54.0910628  -1.0457876  91.7444097
  54.3074243  -0.1633238  91.4432925  53.6104696  -1.4371663  91.0149739
  57.4878552  12.4418513  93.1938944  57.6615430  11.8764935  92.4412796
  57.9807443  13.2419407  93.0118434  63.3417943   5.2054935  94.8129244
  63.7849089   4.4562261  94.4148367  62.4644454   5.1965072  94.4302976
  58.4753725  11.7585277  90.2935842  59.1704629  12.3791970  90.5123157
  58.8176875  10.9080628  90.5688220  60.3745148   9.2084982  91.8223173
  60.8996472   9.5472255  91.0972493  60.2867500   8.2731998  91.6386308
  52.0585809  15.2756966  96.1818426  51.6190799  14.7833344  96.8751283
  52.8093925  14.7329933  95.9410501  49.0673188   9.3698898  91.7299188
  49.2161308  10.0534363  91.0765861  49.8739631   9.3503988  92.2448644
  62.8850808   6.6760174  97.2051691  63.7197699   7.1149978  97.3689252
  63.0209937   6.1998827  96.3859937  52.5668593  11.8647029  89.2010936
  51.9942560  12.4837216  88.7481408  53.1401387  12.4146390  89.7350858
  55.7865853  12.1484179  90.3319518  56.7196526  12.0829740  90.5352394
  55.6989066  12.9840446  89.8734051  58.4153870  11.4650049  87.2923466
  58.3367501  11.1309913  88.1859223  59.2363536  11.9571817  87.2914938
  52.9515392   3.2007841  86.5426988  53.8974496   3.0714049  86.6115406
  52.5729637   2.4622503  87.0196416  66.9308611   5.3927795  99.6405821
  67.6611999   5.1313083 100.2013524  66.3215556   4.6556517  99.6807889
  51.1358309   1.1257818  86.4781873  50.2289764   0.8290930  86.5544587
  51.4134290   0.8287636  85.6116160  49.9057093  -2.0155247  86.6193853
  50.7676257  -1.6900349  86.8789670  50.0907438  -2.8023751  86.1066918
  56.8414608  -0.9826630  92.8185424  55.9540463  -0.6976980  92.6005619
  57.2568597  -1.1432867  91.9712701  55.9857821   8.7818044  86.9133444
  56.6893671   8.9868047  87.5291100  55.2620470   9.3494806  87.1782527
  56.8155632   4.5327906  93.0335714  56.7590833   4.9896457  92.1943346
  57.3683974   3.7718590  92.8558557  60.6260438   0.3217638  93.8585834
  60.3697372  -0.0785727  94.6894041  60.0013306   1.0361432  93.7335973
  64.9372775   3.0613711  96.3657125  64.3772333   3.1306900  97.1388687
  64.3316279   2.8854695  95.6456621  48.0067984  14.4950438  98.1175311
  47.8900368  15.4395870  98.0154002  47.1860430  14.1924000  98.5061110
  57.8944519   9.2200574  88.9631904  58.7290123   8.7881772  88.7809379
  57.7328862   9.0482587  89.8908798  57.5490411   5.7232687  90.3288243
  57.4939215   5.5576958  89.3876687  56.9236466   6.4308720  90.4850433
  50.7876100  13.9009686  97.9941318  49.8371731  13.9011548  97.8805691
  51.0908587  13.1542421  97.4777353  66.5228794  19.7370225  99.0587081
  67.1607204  19.6176972  98.3550421  66.4049637  20.6851069  99.1175033
  63.3318500  19.6897653  98.9948605  62.9937012  19.5738718  98.1069140
  64.2008268  19.2888818  98.9749612  59.1905316  21.5433129  94.9845496
  58.6270181  21.4523066  94.2161784  59.0757711  20.7233034  95.4647989
  63.8138283  20.8432505 104.9534811  63.8026924  20.4485303 104.0815315
  63.9758923  20.1098577 105.5468582  56.7369748  23.0384321  97.8229717
  57.5291040  22.6975146  97.4076016  56.9766398  23.1479296  98.7431870
  64.7704875  25.2104097  90.2959961  64.1192854  25.7958177  89.9093975
  65.5649237  25.7410292  90.3554999  58.6960502  22.2993234  90.6947096
  59.4691378  21.7522221  90.5559971  59.0485901  23.1637483  90.9061557
  60.5345544  23.6269616 103.9013995  60.2435410  24.5315247 103.7860661
  61.1702529  23.6686144 104.6158064  61.4601751  21.0046465 100.4915355
  62.0565323  20.7802487  99.7772317  61.5176723  20.2631210 101.0940802
  61.0326780  18.4585900  88.3265546  61.2852300  17.9367422  87.5649009
  60.0951339  18.2952046  88.4292229  66.0770062  17.4621679  96.1340289
  66.8633152  17.0441102  95.7830706  66.3408767  18.3667771  96.3021937
  66.2480140  22.8994529  90.8328946  65.6125973  22.9729155  91.5449850
  65.9177546  23.4888128  90.1548025  71.4778489  17.3996912  97.0373267
  72.2103661  16.8296129  97.2711097  70.7217845  17.0118512  97.4779773
  60.7523068  20.3614006  90.5289920  60.6359326  19.6858910  91.1971005
  60.8625328  19.8746380  89.7122074  63.0954609  19.8224153  94.2336610
  62.7312816  19.2954774  94.9449531  63.9521725  19.4322622  94.0603095
  69.0003910  11.1118486 101.4967876  68.6687235  11.9813897 101.2729091
  68.4049523  10.7954770 102.1761906  62.7360096  14.8514053  89.2297958
  62.9034499  15.7194289  89.5968429  62.5457265  15.0141335  88.3059247
  65.4935429  23.3131032 100.8963789  65.1936152  24.2156071 100.7879596
  65.1486489  23.0463215 101.7484941  58.9447911  19.7644829  96.9300493
  58.0198407  19.6321043  97.1378185  59.1932324  20.5439048  97.4270435
  68.8932573  15.8313572  98.5761226  67.9849450  15.7628981  98.2819987
  68.8420169  16.3085517  99.4043051  62.7149317  17.3071711  90.2144625
  62.5948942  17.7528761  91.0530105  62.0201905  17.6557028  89.6558163
  56.3056722  19.4078102  97.7644282  56.4349103  19.6612581  98.6783694
  55.6254173  20.0005810  97.4448937  60.4756209  30.0775352  93.8634756
  60.3980239  31.0283177  93.9423237  59.8717853  29.7321225  94.5209683
  62.9673439  17.2503218 106.5196123  62.1906773  17.8097138 106.5098988
  63.6064002  17.7360001 107.0410993  70.7594220  14.0330011 100.3539100
  70.1168600  14.3262544  99.7078894  70.2549148  13.9182931 101.1592297
  68.4134383  17.7793184  91.0424959  69.3252239  18.0120570  90.8672657
  67.9044030  18.3630228  90.4800038  61.2219811  20.0588671 106.0814090
  61.9634496  20.5973715 105.8048914  60.5156797  20.6854960 106.2385642
  66.6975151  22.2017812 104.6786252  67.1058507  21.7600222 103.9340884
  65.9752412  21.6270439 104.9320445  63.0506221  17.1390418 102.0519809
  63.8967416  17.5629832 102.1954458  62.9904859  16.4824043 102.7458372
  67.0203966  22.7619002  98.4338541  66.3912828  22.9264716  97.7314608
  66.6329628  23.1760612  99.2049505  70.8993197  23.6973440  95.7882904
  70.2144236  24.0772341  95.2379938  70.9837047  24.3068767  96.5214852
  66.2005666  14.7994787 103.7100982  65.9566598  15.5536847 103.1735258
  66.4765597  15.1780134 104.5448229  68.1544129  21.3433399 102.3878248
  68.3661024  21.9865159 101.7112629  68.1073877  20.5095716 101.9200178
  65.7570358  13.9551220  99.2914820  64.8954837  14.2532473  99.5831558
  65.7832793  14.1721619  98.3595853  62.5731927  22.4993410  95.6988626
  63.0370273  22.7781113  94.9093248  62.3088725  21.5976855  95.5161716
  59.4656008  22.0464892  98.6368389  60.0357366  22.4752160  97.9985873
  60.0564120  21.7647477  99.3352575  61.5100813  18.6216563  92.5078191
  62.2124857  19.0737606  92.9752117  61.1781442  17.9800382  93.1358084
  55.2526147  16.8800115  97.8095324  54.4625201  17.1357644  97.3335435
  55.7437395  17.6948453  97.9147365  69.2689957  24.2205354 100.5600605
  70.0907401  23.8185542 100.2783287  69.2652360  24.1173589 101.5116721
  57.2040893  17.2444695  94.7678801  56.4072056  17.3563389  95.2862297
  56.9766485  17.5831347  93.9019692  63.0346560  23.7689398 102.7161316
  63.0990993  24.2309805 103.5519488  62.3257484  23.1386763 102.8443626
  53.5363850  17.1330606 100.2410315  53.7871889  18.0177616 100.5067891
  54.0723399  16.9535207  99.4685407  77.3595950  20.5644103  96.9085577
  76.6059658  19.9951501  96.7529581  77.4943491  20.5306767  97.8556211
  62.7494578  25.4357505  92.5840296  62.6140253  26.2809041  93.0125144
  63.2904391  25.6376783  91.8206230  56.2023975  22.9532943  93.1568221
  56.7148496  23.7476194  93.3073786  56.8546688  22.2559234  93.0901823
  58.0118860  26.0698700  95.2390974  58.1885488  26.9916664  95.0511958
  58.8075694  25.7557119  95.6685354  64.3763054  26.0581072 106.7140638
  63.9326909  25.2717450 106.3961543  65.0380268  26.2460222 106.0484529
  59.1350176  27.5876873 101.2401317  59.6857601  27.4593937 100.4678311
  58.2961652  27.8871762 100.8896209  66.4744293  26.3383872 104.7422039
  66.4562768  27.1592753 104.2502309  67.3964213  26.2137947 104.9672181
  62.9317347  23.8528001 105.5845548  63.4645683  23.0916289 105.3544856
  62.4031428  23.5601653 106.3269702  66.0987042   8.9588067 101.1139189
  65.7551311   9.8489709 101.0378300  66.4666004   8.7689725 100.2508774
  54.1672892  21.2821598  93.9327792  55.0048114  21.6918606  93.7161499
  54.3451160  20.3421040  93.9027986  66.0637324  18.9496678  89.6211625
  65.5483948  19.7201283  89.8600012  65.7914633  18.2761814  90.2444686
  63.6484435  13.7946379  94.6796863  62.7926032  13.4053229  94.5002502
  64.0611387  13.8738340  93.8196648  65.1783582  11.3292722  99.0788423
  64.6748378  11.2922857  98.2656228  65.4714189  12.2385465  99.1385079
  61.4226468  11.4131452  98.0854604  62.2879465  11.2174261  97.7260494
  61.4903977  11.1841804  99.0123961  71.0371598  21.7029033  91.5564798
  70.2601041  21.3640192  91.1119960  71.7163079  21.7081656  90.8819763
  65.8523628  16.8223770  91.4471406  65.5473763  17.1369920  92.2981549
  66.8054070  16.9005190  91.4898739  64.2970059  22.9813994  93.0964360
  63.7691421  22.2466753  92.7837597  63.7957562  23.7588670  92.8504328
  69.2762905  21.1763014  98.2131406  68.6186580  21.8662276  98.3011535
  70.0803305  21.5659446  98.5565392  59.0288787  13.6433660  95.4570971
  59.6032539  13.4208841  94.7244164  59.6159769  13.7122354  96.2099573
  68.0868364  19.5307387  96.2635348  68.6000246  20.1637379  96.7657058
  68.7369588  18.9308582  95.8978708  59.3558374  15.6738121  89.4766857
  58.5195686  16.0112808  89.7976131  59.2163144  15.5387101  88.5393994
  61.3311455  10.5174909  94.1846041  60.6775867  10.2023926  93.5602655
  61.2891929   9.8950649  94.9105864  62.4422660  20.7994204  86.0999333
  61.5349721  20.5683457  86.2990482  62.9393692  20.0031823  86.2873314
  64.5649195  17.0056842  98.5093688  63.6471756  17.2271789  98.3515376
  64.9809339  17.0803153  97.6505396  65.3484243  18.4048258  93.6396369
  66.0956062  18.9169655  93.3303491  65.6175832  18.0832311  94.5000762
  63.6210893  20.9006799  90.6223323  62.7122112  20.6165832  90.7195793
  63.6505977  21.3205877  89.7626630  68.8530160  24.5113388  94.3914490
  68.3992488  23.6704298  94.4479681  68.2224127  25.1474787  94.7289271
  67.7963080  15.4405374  95.6215158  67.0585837  14.9282761  95.9525400
  68.0489854  15.0005756  94.8098435  67.2963100  26.3489885  95.3264309
  67.5886074  26.9094942  94.6076674  67.8061720  26.6418446  96.0817468
  67.8974707   8.2181626  96.2156927  68.2033584   7.3578990  95.9282842
  68.6227312   8.8099247  96.0155921  54.1899063  18.6212313  94.6038525
  53.9923463  18.0281674  93.8789592  53.6345727  18.3164523  95.3214464
  62.1695787  18.5135419  96.7233118  62.2244397  17.5609256  96.6475595
  61.3586989  18.6694858  97.2074417  63.3186981  22.4415542  87.9611401
  62.8806411  21.7251401  87.5017039  64.0597422  22.6691657  87.3996493
  60.1088147  17.1312479  94.4823497  59.2956012  17.4306650  94.8888689
  60.6047141  16.7368168  95.1997979  62.2596725  27.1270236  96.4157762
  62.2172904  27.3531082  95.4866294  63.1759424  26.8933611  96.5643563
  65.7062359  17.5954304 103.3138391  66.0611746  17.8225777 104.1732857
  66.3534490  17.9272680 102.6915646  71.4360096  20.7172739  94.0187720
  71.2977994  20.9074335  93.0908909  71.0796314  21.4792122  94.4755771
  59.6002222  14.7030835 100.0984732  60.2401601  14.5619594  99.4007695
  58.7679752  14.4165348  99.7223334  71.4629475  22.7849267  99.0298992
  71.8965982  22.6924556  99.8782046  72.1761056  22.7606767  98.3919008
  60.3762526  24.0033265  96.2119725  61.1703124  23.5083585  96.0102299
  59.6654218  23.4751128  95.8487430  65.1957370  26.3851361 100.5632092
  65.2494392  26.9542297 101.3309808  64.3272151  26.5553246 100.1986129
  56.6845289  18.1476347  92.2879477  55.7542877  18.0860802  92.5049439
  56.7802761  17.6252300  91.4916118  56.6030838  14.6731160  94.8757719
  56.8637655  15.5876493  94.7666879  57.4248010  14.2055602  95.0254332
  58.0755763  16.0868917 102.0456543  58.7478817  15.8786279 101.3969192
  57.2485550  15.8891003 101.6061776  72.3245025  22.8272967 101.5631877
  72.5180915  23.7318778 101.8091152  72.2245643  22.3680386 102.3970462
  63.9781335  12.7130858 104.0622204  63.3309251  13.4120807 103.9686681
  64.7482351  13.1467002 104.4298452  67.3860133  22.9779710 107.1372758
  67.2345640  22.7490262 106.2202841  67.3764813  23.9350311 107.1504103
  64.1545470  20.5511623 102.1219024  65.0837530  20.7022782 101.9487991
  63.7336500  20.6395643 101.2667670  62.9533802  24.5762287  99.8917562
  62.8144887  24.2081071 100.7643500  62.1648398  25.0909926  99.7201519
  63.5481954  29.6771384  91.2343098  63.7233709  29.2059427  92.0488721
  62.8614742  30.3037150  91.4624359  64.5039017  23.9543890  97.2806399
  64.1688849  23.9144660  98.1764049  64.0042962  23.2888606  96.8076810
  58.4783261  19.3611520 102.8058981  58.3403059  18.6291759 103.4070520
  59.3888184  19.2720420 102.5243168  67.4398208  21.2999924  87.5543459
  66.8227379  20.5746752  87.4576512  66.9714697  22.0609284  87.2110533
  61.1065561  19.0731479 102.2942660  61.8165180  18.4324671 102.2529279
  61.0634870  19.3244374 103.2168841  69.0952340  26.0098832 105.2149239
  69.0364886  25.3258053 104.5479822  69.4971858  26.7517822 104.7629865
  58.1143039  32.8260746  98.0082958  58.3539637  33.4579270  98.6861977
  57.2712235  32.4748786  98.2948318  59.2296754  15.5185348  86.6764763
  58.3526221  15.3974149  86.3127010  59.7054507  14.7271427  86.4243652
  69.0969747  23.9738416 103.4463219  68.2096526  23.6364338 103.5689618
  69.6668298  23.2421448 103.6831984  50.7498894  20.3062508  96.7706270
  51.4369934  19.9924238  96.1827286  50.5947023  21.2103873  96.4973522
  55.5533617  15.1952705 101.1991294  55.4691805  14.5878374 100.4641704
  54.7316323  15.6861723 101.2000790  62.6270901  28.6339869 100.4124462
  62.5541072  29.4394840 100.9243767  62.1848294  28.8331835  99.5872484
  62.4160680  27.8711639  93.9227284  61.6328202  28.4133319  94.0165508
  63.1153426  28.3885618  94.3221525  65.7257330  13.6806268  96.5661489
  66.2226030  12.9276231  96.2462559  64.9544312  13.7170585  96.0004699
  73.5787088  19.3846634  98.2079781  73.5676964  20.2671349  97.8373714
  72.7104467  19.0318185  98.0134318  65.0869584  28.5326703 102.5682621
  65.7997556  29.1674168 102.4958522  64.5959613  28.6290569 101.7522623
  66.8087111  22.4377955  94.1399913  65.8743390  22.5579418  93.9704617
  66.9863780  21.5350422  93.8759922  62.3092299  15.8223651  96.2933174
  61.9390087  15.2694692  96.9814079  62.8051392  15.2181785  95.7408174
  70.1959663  18.2795275  94.6749947  70.6620115  19.1123266  94.6010249
  70.6467163  17.8140256  95.3795205  60.1381498  26.2821146 103.3888192
  60.8390957  26.9157629 103.5417586  59.6676613  26.6235878 102.6283831
  68.2635894  24.6239096  91.6736099  68.5395738  24.5095691  92.5829973
  67.3940392  24.2256581  91.6348272  68.1676325  10.6475862  98.7140848
  67.2539405  10.8780089  98.8823055  68.5969427  10.7314306  99.5654880
  67.9382784  18.8365754 101.2140742  67.2854234  19.0841661 100.5593195
  68.3163164  18.0229892 100.8803219  64.8989958  28.8725447  95.3168912
  65.0812352  28.0547103  95.7796665  65.7222944  29.0893139  94.8793802
  65.2332123  27.7993632  92.5783961  65.7619890  27.2886087  91.9654123
  65.4960343  27.4836162  93.4429494  63.9870357  19.5785565 107.7006779
  63.3110994  19.4779694 108.3709154  64.8097991  19.4224778 108.1642776
  55.7349216  25.8157501 100.3219294  56.3202653  25.0701189 100.4547199
  55.5374054  26.1261458 101.2055958  58.5887871  28.8508749  95.3381737
  57.9198246  29.3354876  94.8545777  58.4500741  29.0977969  96.2525115
  50.3266871  18.3863102  99.0423738  50.3650970  17.8526692  99.8360856
  49.8207163  17.8598307  98.4234715  62.7293140  30.8852492 101.9364395
  63.2811448  31.0484114 102.7013480  63.0699333  31.4756930 101.2644420
  67.5804014  25.7113750 107.7913050  68.1243918  26.3243708 107.2968004
  66.9990859  26.2693328 108.3080063  53.9575448  17.1127204  92.1177669
  54.2528889  16.2037882  92.0644723  53.0563484  17.0914943  91.7958671
  65.8661527  28.8334468  98.9228077  65.7412666  28.0324208  98.4139023
  66.5240618  29.3280661  98.4342047  57.4869695  15.1883200  98.1005218
  56.7656281  15.8019168  97.9612691  58.2762951  15.7240965  98.0221864
  67.9296435  26.6343488 100.5507627  66.9826771  26.5148839 100.4785954
  68.2779208  25.7465986 100.6333889  55.6863290  14.7941301  92.2416994
  55.3575996  13.9138680  92.0592100  56.0402660  14.7388970  93.1293383
  64.9342869  26.4296204  96.7511980  64.7867831  25.5012911  96.9319550
  65.7596362  26.4516295  96.2669055  58.8005113  15.0814271  92.6092472
  59.1401185  15.6100192  91.8871080  59.2477233  15.4194677  93.3851038
  68.5376990  27.2524763  97.8376852  69.4623538  27.0467624  97.7001304
  68.3692294  27.0041164  98.7466194  61.4948554  13.4651322 102.0595540
  61.1545374  12.6659135 102.4616220  60.7887560  13.7653033 101.4872373
  62.1465026  10.5500634 100.5122863  62.9691095  10.0761112 100.3901753
  62.3903089  11.3291118 101.0121549  60.7873260  13.5788893  90.8085765
  61.5081623  13.9570145  90.3049481  60.1638564  14.2977770  90.9120743
  64.9304383  14.2834042  91.7444097  65.1467997  15.1658680  91.4432925
  64.4498450  13.8920255  91.0149739  59.6703604  17.2419755  98.3214841
  59.5248185  17.5560058  99.2139123  59.1928808  17.8604655  97.7685740
  61.5299987  14.2322303  98.3695731  61.5161556  13.3363396  98.0328029
  62.2472415  14.2392967  99.0034017  63.3826118  14.6659643 100.4148858
  63.1243896  15.5876714 100.4133189  62.8511158  14.2690078 101.1049323
  68.3272307  27.7710430  93.1938944  68.5009184  27.2056853  92.4412796
  68.8201198  28.5711325  93.0118434  54.1449266  19.7825099 101.2602503
  53.6002735  20.5584907 101.3922777  55.0228616  20.1295904 101.1021624
  60.9336883  13.1136683  93.6383301  61.0552794  12.1853329  93.8374189
  60.6438925  13.1275369  92.7261617  63.8028074  10.7991594  96.7750021
  63.8249770  10.8630927  95.8202001  64.2196133   9.9596102  96.9690527
  74.1811698  20.5346853  94.8129244  74.6242844  19.7854178  94.4148367
  73.3038208  20.5256990  94.4302976  69.3147479  27.0877195  90.2935842
  70.0098384  27.7083887  90.5123157  69.6570629  26.2372546  90.5688220
  71.2138902  24.5376900  91.8223173  71.7390226  24.8764173  91.0972493
  71.1261255  23.6023915  91.6386308  62.8758951  28.4510974 103.9513050
  63.1846077  28.2060121 104.8235749  63.6734433  28.6557612 103.4631920
  62.8979563  30.6048883  96.1818426  62.4584553  30.1125262  96.8751283
  63.6487680  30.0621851  95.9410501  55.3771902  26.7960424  96.1843054
  56.2029922  26.4964196  95.8041698  55.0265954  26.0268047  96.6332843
  60.3453435  26.1486893  98.2540728  59.7233444  25.4857598  97.9542956
  61.0158302  26.1748024  97.5714376  53.5780507  24.7146751  97.1431988
  52.7412415  24.2868925  96.9615989  53.5504152  24.9079194  98.0802779
  70.9032808  25.1709804 107.1274371  70.1128352  25.1533943 106.5878870
  70.6666163  25.7098097 107.8823407  71.0230683  22.0202270 104.4407099
  71.0728688  21.8552278 105.3822622  70.9144607  21.1529529 104.0504980
  59.9066942  24.6990816  91.7299188  60.0555062  25.3826280  91.0765861
  60.7133386  24.6795906  92.2448644  68.3134446  18.0033198 105.7566406
  69.2144309  17.8639663 105.4650404  68.3882420  18.1687653 106.6964584
  62.6477251  15.3800053 104.6019592  61.7780561  15.6733619 104.3302181
  62.8836731  15.9640498 105.3226856  72.5248880  24.4399212 104.6849121
  72.2333689  24.8029192 105.5212582  71.9121011  23.7266220 104.5062453
  73.7244563  22.0052091  97.2051691  74.5591454  22.4441896  97.3689252
  73.8603691  21.5290745  96.3859937  70.7736068  19.5631826 103.1529179
  71.2490190  19.7559473 102.3448030  69.8501634  19.6191012 102.9072563
  57.6619575  20.7255993  92.7360257  57.4165617  19.8218323  92.9340467
  57.8315490  20.7273144  91.7939735  65.3516285  11.5979670 102.1185013
  65.8698229  12.3340697 101.7931501  64.9971418  11.9043663 102.9531772
  56.9315223  16.4584351  90.2346419  56.2384468  16.5328706  89.5786455
  56.6866974  15.6944695  90.7567936  65.6028879   8.0179952  97.6385909
  65.8830633   7.3503141  98.2646336  66.3879486   8.2109048  97.1260573
  63.4062348  27.1938946  89.2010936  62.8336315  27.8129133  88.7481408
  63.9795141  27.7438308  89.7350858  69.4737737  16.4397586 101.3857485
  70.4255160  16.5395684 101.4069709  69.3041188  15.6475855 101.8955569
  67.4952117  13.5253170 101.5716885  66.9002049  13.8058182 100.8763374
  67.2101814  14.0147071 102.3433627  66.6259607  27.4776096  90.3319518
  67.5590281  27.4121658  90.5352394  66.5382820  28.3132363  89.8734051
  69.2547624  26.7941967  87.2923466  69.1761256  26.4601830  88.1859223
  70.0757291  27.2863735  87.2914938  71.9525815  19.6603706 100.4999784
  71.9202135  18.7219707 100.6859468  72.5626439  19.7387743  99.7665609
  63.7909146  18.5299759  86.5426988  64.7368251  18.4005967  86.6115406
  63.4123391  17.7914421  87.0196416  72.1020304  16.4514750 100.5458067
  71.5859352  15.6673206 100.3587996  72.9860252  16.1233466 100.7104587
  69.7631031  10.1955765  96.5053880  69.5655852   9.8870853  97.3897212
  70.3730736  10.9217404  96.6351810  77.7702365  20.7219713  99.6405821
  78.5005754  20.4605001 100.2013524  77.1609311  19.9848435  99.6807889
  75.8517662  18.8627576 100.2380272  75.1250826  18.7283540  99.6296764
  75.4364949  19.1704404 101.0436990  63.6747839  22.5817505 108.0027645
  64.5950848  22.7596104 108.1967692  63.6397422  21.6373551 107.8507344
  61.9752063  16.4549735  86.4781873  61.0683519  16.1582848  86.5544587
  62.2528044  16.1579554  85.6116160  52.8930004  17.7756099  96.9280920
  52.5732788  16.9221407  96.6355294  52.3463432  17.9904677  97.6838887
  56.6709911  20.4918540 100.6450426  56.8895921  21.4235648 100.6638460
  57.0835685  20.1326514 101.4305230  63.5914129  10.9986625  92.6326115
  62.7814857  10.6533710  93.0081361  64.2798546  10.6894169  93.2213726
  65.5204677  10.0764672  94.2550411  66.0735716  10.4960125  94.9140435
  65.7574764   9.1500420  94.2973367  60.7450848  13.3136671  86.6193853
  61.6070012  13.6391569  86.8789670  60.9301192  12.5268167  86.1066918
  52.7618264  21.3959010  98.8974041  52.0681735  20.9812963  98.3843996
  53.5091255  21.4379547  98.3007460  68.8983484  12.1865197  93.7629076
  68.3182153  12.8450001  93.3807128  68.6319417  11.3642542  93.3516493
  67.3487051  11.5870255  95.9650396  67.8486829  11.6986789  95.1564715
  67.9922659  11.2831308  96.6051204  54.6755006  21.3277264  96.7740056
  54.6525694  21.4264951  95.8221939  54.9855643  22.1742415  97.0957222
  57.3342384  23.3853419 100.8886671  58.2885638  23.3537361 100.8216602
  57.1354908  22.9244043 101.7036897  57.9241766  21.9554535 103.4557468
  58.7434655  22.4498614 103.4792306  58.1978574  21.0386503 103.4275036
  67.6808362  14.3465288  92.8185424  66.7934217  14.6314938  92.6005619
  68.0962351  14.1859051  91.9712701  71.0322899  14.3711808  96.5339763
  71.8083289  14.8608261  96.8064380  70.3071033  14.7969863  96.9911633
  73.4695457  15.0839428  97.5913704  74.0639948  14.8435164  96.8807012
  73.5422041  14.3646558  98.2187240  55.6892613  28.9273039  97.9056869
  55.5547081  28.1673440  97.3394867  55.2724675  29.6513938  97.4385657
  66.8251576  24.1109962  86.9133444  67.5287426  24.3159965  87.5291100
  66.1014225  24.6786724  87.1782527  67.6549386  19.8619823  93.0335714
  67.5984588  20.3188375  92.1943346  68.2077729  19.1010508  92.8558557
  71.4654192  15.6509555  93.8585834  71.2091126  15.2506191  94.6894041
  70.8407060  16.3653349  93.7335973  75.7766530  18.3905629  96.3657125
  75.2166088  18.4598818  97.1388687  75.1710033  18.2146613  95.6456621
  58.8461739  29.8242356  98.1175311  58.7294123  30.7687788  98.0154002
  58.0254185  29.5215917  98.5061110  68.7338273  24.5492491  88.9631904
  69.5683877  24.1173690  88.7809379  68.5722616  24.3774505  89.8908798
  68.3884165  21.0524605  90.3288243  68.3332969  20.8868876  89.3876687
  67.7630221  21.7600638  90.4850433  65.7030073  23.3573517 109.6541806
  66.5721232  23.5314169 109.2928441  65.2236824  24.1767933 109.5317535
  61.6980291  10.5532714  89.9073562  61.6858961  11.4974554  90.0641833
  62.5903713  10.3702859  89.6133023  59.8716253  30.4770618 101.3331240
  60.7743500  30.5094228 101.6497735  59.6453623  29.5471069 101.3477575
  61.6269855  29.2301604  97.9941318  60.6765486  29.2303466  97.8805691
  61.9302341  28.4834339  97.4777353  65.5132410   7.1475490  94.1619498
  64.7464806   6.5933977  94.3076181  65.9243115   7.2197359  95.0233650
  77.3622548  35.0662142  99.0587081  78.0000958  34.9468890  98.3550421
  77.2443391  36.0142986  99.1175033  74.1712255  35.0189571  98.9948605
  73.8330766  34.9030635  98.1069140  75.0402023  34.6180736  98.9749612
  70.0299070  36.8725047  94.9845496  69.4663935  36.7814984  94.2161784
  69.9151465  36.0524951  95.4647989  74.6532038  36.1724422 104.9534811
  74.6420678  35.7777221 104.0815315  74.8152677  35.4390495 105.5468582
  71.3739299  38.9561534 103.9013995  71.0829165  39.8607165 103.7860661
  72.0096283  38.9978062 104.6158064  72.2995506  36.3338383 100.4915355
  72.8959078  36.1094405  99.7772317  72.3570477  35.5923128 101.0940802
  71.8720534  33.7877818  88.3265546  72.1246055  33.2659339  87.5649009
  70.9345093  33.6243963  88.4292229  76.9163817  32.7913596  96.1340289
  77.7026906  32.3733020  95.7830706  77.1802521  33.6959689  96.3021937
  82.3172244  32.7288830  97.0373267  83.0497416  32.1588046  97.2711097
  81.5611600  32.3410430  97.4779773  71.5916823  35.6905924  90.5289920
  71.4753081  35.0150827  91.1971005  71.7019083  35.2038298  89.7122074
  73.9348364  35.1516071  94.2336610  73.5706571  34.6246692  94.9449531
  74.7915480  34.7614540  94.0603095  79.8397664  26.4410404 101.4967876
  79.5080989  27.3105815 101.2729091  79.2443278  26.1246688 102.1761906
  73.5753851  30.1805971  89.2297958  73.7428253  31.0486207  89.5968429
  73.3851020  30.3433252  88.3059247  76.3329184  38.6422950 100.8963789
  76.0329907  39.5447988 100.7879596  75.9880243  38.3755133 101.7484941
  69.7841665  35.0936746  96.9300493  68.8592162  34.9612961  97.1378185
  70.0326079  35.8730966  97.4270435  79.7326328  31.1605490  98.5761226
  78.8243205  31.0920898  98.2819987  79.6813923  31.6377435  99.4043051
  73.5543072  32.6363628  90.2144625  73.4342697  33.0820679  91.0530105
  72.8595660  32.9848946  89.6558163  67.1450476  34.7370020  97.7644282
  67.2742858  34.9904499  98.6783694  66.4647928  35.3297728  97.4448937
  73.8067193  32.5795135 106.5196123  73.0300527  33.1389056 106.5098988
  74.4457756  33.0651918 107.0410993  81.5987974  29.3621928 100.3539100
  80.9562354  29.6554461  99.7078894  81.0942903  29.2474849 101.1592297
  79.2528138  33.1085101  91.0424959  80.1645994  33.3412488  90.8672657
  78.7437785  33.6922146  90.4800038  72.0613566  35.3880589 106.0814090
  72.8028250  35.9265633 105.8048914  71.3550551  36.0146878 106.2385642
  77.5368905  37.5309729 104.6786252  77.9452261  37.0892140 103.9340884
  76.8146167  36.9562357 104.9320445  73.8899975  32.4682336 102.0519809
  74.7361171  32.8921750 102.1954458  73.8298613  31.8115960 102.7458372
  77.8597720  38.0910920  98.4338541  77.2306582  38.2556634  97.7314608
  77.4723382  38.5052529  99.2049505  77.0399421  30.1286704 103.7100982
  76.7960353  30.8828765 103.1735258  77.3159351  30.5072052 104.5448229
  78.9937884  36.6725317 102.3878248  79.2054779  37.3157077 101.7112629
  78.9467632  35.8387633 101.9200178  76.5964112  29.2843137  99.2914820
  75.7348591  29.5824391  99.5831558  76.6226547  29.5013536  98.3595853
  73.4125682  37.8285328  95.6988626  73.8764027  38.1073031  94.9093248
  73.1482480  36.9268773  95.5161716  70.3049763  37.3756809  98.6368389
  70.8751120  37.8044078  97.9985873  70.8957875  37.0939394  99.3352575
  72.3494568  33.9508480  92.5078191  73.0518611  34.4029524  92.9752117
  72.0175196  33.3092299  93.1358084  70.7974929  32.5420237 106.8829400
  70.1673590  33.2236518 107.1164797  70.6911017  32.4303319 105.9382538
  66.0919902  32.2092033  97.8095324  65.3018956  32.4649562  97.3335435
  66.5831149  33.0240371  97.9147365  80.1083711  39.5497272 100.5600605
  80.9301155  39.1477459 100.2783287  80.1046114  39.4465506 101.5116721
  68.0434647  32.5736612  94.7678801  67.2465811  32.6855306  95.2862297
  67.8160239  32.9123264  93.9019692  73.8740315  39.0981315 102.7161316
  73.9384747  39.5601723 103.5519488  73.1651239  38.4678680 102.8443626
  64.3757605  32.4622523 100.2410315  64.6265643  33.3469533 100.5067891
  64.9117153  32.2827125  99.4685407  88.1989705  35.8936021  96.9085577
  87.4453413  35.3243419  96.7529581  88.3337246  35.8598685  97.8556211
  70.0755672  26.8441003 109.2454651  69.6822618  26.2907201 109.9202295
  70.8921813  27.1551581 109.6361169  72.9923633  28.2598882 106.8374908
  73.7333347  28.8606035 106.7579370  73.2241556  27.5176520 106.2792950
  68.1364971  33.4455249 105.1153137  68.0218486  32.5440506 105.4160236
  67.2809489  33.6918946 104.7637954  75.2156809  41.3872989 106.7140638
  74.7720663  40.6009368 106.3961543  75.8774023  41.5752140 106.0484529
  69.9743930  42.9168791 101.2401317  70.5251355  42.7885854 100.4678311
  69.1355406  43.2163680 100.8896209  77.3138047  41.6675789 104.7422039
  77.2956522  42.4884670 104.2502309  78.2357967  41.5429865 104.9672181
  73.7711101  39.1819919 105.5845548  74.3039438  38.4208207 105.3544856
  73.2425182  38.8893571 106.3269702  76.9380796  24.2879985 101.1139189
  76.5945066  25.1781626 101.0378300  77.3059759  24.0981642 100.2508774
  74.4878190  29.1238297  94.6796863  73.6319786  28.7345147  94.5002502
  74.9005142  29.2030258  93.8196648  76.0177337  26.6584640  99.0788423
  75.5142132  26.6214775  98.2656228  76.3107943  27.5677383  99.1385079
  72.2620222  26.7423370  98.0854604  73.1273219  26.5466178  97.7260494
  72.3297731  26.5133721  99.0123961  76.6917382  32.1515688  91.4471406
  76.3867518  32.4661837  92.2981549  77.6447824  32.2297108  91.4898739
  80.1156660  36.5054932  98.2131406  79.4580334  37.1954193  98.3011535
  80.9197059  36.8951364  98.5565392  69.8682541  28.9725578  95.4570971
  70.4426293  28.7500759  94.7244164  70.4553524  29.0414272  96.2099573
  78.9262119  34.8599305  96.2635348  79.4394000  35.4929296  96.7657058
  79.5763343  34.2600500  95.8978708  70.1952129  31.0030039  89.4766857
  69.3589441  31.3404725  89.7976131  70.0556898  30.8679018  88.5393994
  72.1705209  25.8466827  94.1846041  71.5169622  25.5315844  93.5602655
  72.1285683  25.2242567  94.9105864  75.4042950  32.3348760  98.5093688
  74.4865511  32.5563707  98.3515376  75.8203093  32.4095071  97.6505396
  76.1877997  33.7340176  93.6396369  76.9349816  34.2461573  93.3303491
  76.4569587  33.4124228  94.5000762  74.4604647  36.2298716  90.6223323
  73.5515867  35.9457749  90.7195793  74.4899731  36.6497795  89.7626630
  78.6356834  30.7697292  95.6215158  77.8979591  30.2574678  95.9525400
  78.8883608  30.3297674  94.8098435  78.7368462  23.5473544  96.2156927
  79.0427339  22.6870907  95.9282842  79.4621067  24.1391164  96.0155921
  73.0089542  33.8427337  96.7233118  73.0638151  32.8901173  96.6475595
  72.1980744  33.9986776  97.2074417  70.9481901  32.4604397  94.4823497
  70.1349767  32.7598567  94.8888689  71.4440896  32.0660086  95.1997979
  76.5456113  32.9246221 103.3138391  76.9005501  33.1517694 104.1732857
  77.1928244  33.2564598 102.6915646  82.2753850  36.0464657  94.0187720
  82.1371749  36.2366253  93.0908909  81.9190069  36.8084040  94.4755771
  70.4395976  30.0322752 100.0984732  71.0795356  29.8911511  99.4007695
  69.6073507  29.7457266  99.7223334  82.3023230  38.1141184  99.0298992
  82.7359736  38.0216473  99.8782046  83.0154810  38.0898685  98.3919008
  76.0351125  41.7143278 100.5632092  76.0888147  42.2834215 101.3309808
  75.1665906  41.8845163 100.1986129  67.4424593  30.0023077  94.8757719
  67.7031410  30.9168411  94.7666879  68.2641765  29.5347520  95.0254332
  68.9149518  31.4160835 102.0456543  69.5872571  31.2078197 101.3969192
  68.0879304  31.2182920 101.6061776  83.1638779  38.1564885 101.5631877
  83.3574669  39.0610695 101.8091152  83.0639397  37.6972304 102.3970462
  74.8175090  28.0422775 104.0622204  74.1703005  28.7412725 103.9686681
  75.5876105  28.4758919 104.4298452  78.2253888  38.3071628 107.1372758
  78.0739394  38.0782179 106.2202841  78.2158567  39.2642229 107.1504103
  74.9939224  35.8803540 102.1219024  75.9231284  36.0314700 101.9487991
  74.5730254  35.9687561 101.2667670  73.7927556  39.9054205  99.8917562
  73.6538642  39.5372989 100.7643500  73.0042152  40.4201844  99.7201519
  75.3432771  39.2835807  97.2806399  75.0082604  39.2436577  98.1764049
  74.8436717  38.6180523  96.8076810  69.3177015  34.6903437 102.8058981
  69.1796813  33.9583676 103.4070520  70.2281939  34.6012338 102.5243168
  71.9459316  34.4023397 102.2942660  72.6558934  33.7616589 102.2529279
  71.9028624  34.6536292 103.2168841  79.9346095  41.3390750 105.2149239
  79.8758641  40.6549970 104.5479822  80.3365613  42.0809740 104.7629865
  70.6588250  31.3888615 104.1138300  70.1225607  30.9379353 104.7659896
  70.0704958  31.5234524 103.3708764  79.9363502  39.3030334 103.4463219
  79.0490281  38.9656256 103.5689618  80.5062053  38.5713365 103.6831984
  61.5892649  35.6354426  96.7706270  62.2763689  35.3216156  96.1827286
  61.4340778  36.5395790  96.4973522  66.3927371  30.5244622 101.1991294
  66.3085560  29.9170292 100.4641704  65.5710077  31.0153641 101.2000790
  73.4664655  43.9631786 100.4124462  73.3934827  44.7686758 100.9243767
  73.0242048  44.1623752  99.5872484  76.5651085  29.0098186  96.5661489
  77.0619784  28.2568148  96.2462559  75.7938066  29.0462503  96.0004699
  84.4180842  34.7138551  98.2079781  84.4070719  35.5963267  97.8373714
  83.5498222  34.3610102  98.0134318  75.9263339  43.8618620 102.5682621
  76.6391311  44.4966085 102.4958522  75.4353367  43.9582486 101.7522623
  73.1486054  31.1515569  96.2933174  72.7783841  30.5986609  96.9814079
  73.6445146  30.5473702  95.7408174  81.0353417  33.6087192  94.6749947
  81.5013869  34.4415184  94.6010249  81.4860917  33.1432174  95.3795205
  70.9775252  41.6113064 103.3888192  71.6784712  42.2449547 103.5417586
  70.5070367  41.9527795 102.6283831  79.0070080  25.9767779  98.7140848
  78.0933160  26.2072006  98.8823055  79.4363181  26.0606223  99.5654880
  78.7776538  34.1657671 101.2140742  78.1247988  34.4133579 100.5593195
  79.1556918  33.3521810 100.8803219  74.8264111  34.9077482 107.7006779
  74.1504748  34.8071612 108.3709154  75.6491745  34.7516696 108.1642776
  66.5742970  41.1449419 100.3219294  67.1596407  40.3993107 100.4547199
  66.3767809  41.4553376 101.2055958  61.1660625  33.7155019  99.0423738
  61.2044725  33.1818610  99.8360856  60.6600918  33.1890225  98.4234715
  73.5686894  46.2144410 101.9364395  74.1205202  46.3776031 102.7013480
  73.9093088  46.8048848 101.2644420  68.5451387  28.5619560 102.5386280
  68.6092714  29.4234391 102.1263678  68.4818508  27.9493561 101.8058638
  68.0203660  30.6342692 106.1859314  68.6475699  30.2519770 106.7996838
  67.1631579  30.4156894 106.5515007  78.4197768  41.0405667 107.7913050
  78.9637672  41.6535626 107.2968004  77.8384613  41.5985246 108.3080063
  68.3263450  30.5175118  98.1005218  67.6050035  31.1311086  97.9612691
  69.1156705  31.0532883  98.0221864  78.7690190  41.9635405 100.5507627
  77.8220525  41.8440757 100.4785954  79.1172963  41.0757904 100.6333889
  71.1289763  27.8529544 104.3745869  71.6524165  28.0991841 105.1372179
  70.9102096  28.6849579 103.9549007  66.5257044  30.1233219  92.2416994
  66.1969750  29.2430598  92.0592100  66.8796415  30.0680888  93.1293383
  69.6398867  30.4106189  92.6092472  69.9794940  30.9392110  91.8871080
  70.0870988  30.7486595  93.3851038  72.3342308  28.7943240 102.0595540
  71.9939129  27.9951053 102.4616220  71.6281314  29.0944950 101.4872373
  72.9858780  25.8792552 100.5122863  73.8084849  25.4053030 100.3901753
  73.2296844  26.6583036 101.0121549  71.6267015  28.9080810  90.8085765
  72.3475377  29.2862063  90.3049481  71.0032319  29.6269687  90.9120743
  75.7698137  29.6125959  91.7444097  75.9861752  30.4950597  91.4432925
  75.2892205  29.2212173  91.0149739  70.5097359  32.5711673  98.3214841
  70.3641940  32.8851976  99.2139123  70.0322562  33.1896573  97.7685740
  72.3693742  29.5614221  98.3695731  72.3555310  28.6655314  98.0328029
  73.0866170  29.5684884  99.0034017  74.2219872  29.9951561 100.4148858
  73.9637650  30.9168631 100.4133189  73.6904913  29.5981995 101.1049323
  64.9843021  35.1117017 101.2602503  64.4396489  35.8876825 101.3922777
  65.8622371  35.4587821 101.1021624  71.7730638  28.4428601  93.6383301
  71.8946549  27.5145247  93.8374189  71.4832680  28.4567287  92.7261617
  74.6421828  26.1283511  96.7750021  74.6643525  26.1922844  95.8202001
  75.0589887  25.2888020  96.9690527  85.0205452  35.8638771  94.8129244
  85.4636598  35.1146096  94.4148367  84.1431963  35.8548907  94.4302976
  65.7709043  34.2386913 104.1532660  65.0290779  34.3869549 104.7397290
  65.4501787  34.4995179 103.2899409  73.7152705  43.7802891 103.9513050
  74.0239832  43.5352038 104.8235749  74.5128187  43.9849530 103.4631920
  71.2571717  29.9560598 107.8473234  71.3059873  30.8322721 107.4651003
  71.7994231  29.4137991 107.2744877  81.7426563  40.5001721 107.1274371
  80.9522107  40.4825860 106.5878870  81.5059917  41.0390015 107.8823407
  81.8624438  37.3494188 104.4407099  81.9122443  37.1844195 105.3822622
  81.7538361  36.4821447 104.0504980  79.1528200  33.3325116 105.7566406
  80.0538063  33.1931581 105.4650404  79.2276175  33.4979571 106.6964584
  73.4871006  30.7091971 104.6019592  72.6174315  31.0025537 104.3302181
  73.7230486  31.2932416 105.3226856  83.3642635  39.7691129 104.6849121
  83.0727443  40.1321110 105.5212582  82.7514766  39.0558138 104.5062453
  84.5638317  37.3344009  97.2051691  85.3985208  37.7733813  97.3689252
  84.6997446  36.8582662  96.3859937  81.6129823  34.8923744 103.1529179
  82.0883945  35.0851390 102.3448030  80.6895388  34.9482930 102.9072563
  68.5013330  36.0547911  92.7360257  68.2559371  35.1510241  92.9340467
  68.6709244  36.0565062  91.7939735  76.1910039  26.9271588 102.1185013
  76.7091983  27.6632614 101.7931501  75.8365172  27.2335581 102.9531772
  76.4422634  23.3471870  97.6385909  76.7224387  22.6795059  98.2646336
  77.2273241  23.5400966  97.1260573  80.3131492  31.7689504 101.3857485
  81.2648915  31.8687602 101.4069709  80.1434942  30.9767773 101.8955569
  78.3345871  28.8545087 101.5716885  77.7395804  29.1350100 100.8763374
  78.0495568  29.3438988 102.3433627  82.7919570  34.9895624 100.4999784
  82.7595890  34.0511624 100.6859468  83.4020193  35.0679660  99.7665609
  74.6302901  33.8591677  86.5426988  75.5762005  33.7297885  86.6115406
  74.2517146  33.1206339  87.0196416  82.9414058  31.7806667 100.5458067
  82.4253107  30.9965124 100.3587996  83.8254007  31.4525384 100.7104587
  80.6024785  25.5247683  96.5053880  80.4049606  25.2162771  97.3897212
  81.2124491  26.2509322  96.6351810  88.6096120  36.0511631  99.6405821
  89.3399508  35.7896919 100.2013524  88.0003065  35.3140353  99.6807889
  86.6911417  34.1919493 100.2380272  85.9644580  34.0575458  99.6296764
  86.2758704  34.4996322 101.0436990  74.5141593  37.9109423 108.0027645
  75.4344603  38.0888022 108.1967692  74.4791176  36.9665468 107.8507344
  72.8145818  31.7841653  86.4781873  71.9077273  31.4874766  86.5544587
  73.0921799  31.4871471  85.6116160  63.7323758  33.1048017  96.9280920
  63.4126542  32.2513325  96.6355294  63.1857186  33.3196595  97.6838887
  67.5103666  35.8210458 100.6450426  67.7289675  36.7527565 100.6638460
  67.9229440  35.4618432 101.4305230  74.4307883  26.3278543  92.6326115
  73.6208612  25.9825628  93.0081361  75.1192300  26.0186087  93.2213726
  76.3598432  25.4056590  94.2550411  76.9129470  25.8252043  94.9140435
  76.5968518  24.4792338  94.2973367  72.3831531  31.3943663 110.0353175
  72.2828258  32.3438020 109.9665266  72.1653073  31.0661902 109.1629245
  71.5844602  28.6428588  86.6193853  72.4463766  28.9683487  86.8789670
  71.7694947  27.8560084  86.1066918  63.6012018  36.7250928  98.8974041
  62.9075490  36.3104881  98.3843996  64.3485009  36.7671465  98.3007460
  79.7377239  27.5157115  93.7629076  79.1575908  28.1741919  93.3807128
  79.4713172  26.6934459  93.3516493  78.1880805  26.9162173  95.9650396
  78.6880584  27.0278707  95.1564715  78.8316413  26.6123225  96.6051204
  72.2462801  34.8240802 108.8518237  71.7629883  35.6241162 109.0582126
  72.3323740  34.8348747 107.8985681  68.1736139  38.7145337 100.8886671
  69.1279392  38.6829279 100.8216602  67.9748662  38.2535961 101.7036897
  68.7635521  37.2846453 103.4557468  69.5828410  37.7790532 103.4792306
  69.0372328  36.3678421 103.4275036  78.5202117  29.6757205  92.8185424
  77.6327972  29.9606856  92.6005619  78.9356106  29.5150969  91.9712701
  81.8716653  29.7003726  96.5339763  82.6477043  30.1900179  96.8064380
  81.1464787  30.1261780  96.9911633  84.3089212  30.4131345  97.5913704
  84.9033702  30.1727081  96.8807012  84.3815795  29.6938476  98.2187240
  78.4943141  35.1911741  93.0335714  78.4378342  35.6480293  92.1943346
  79.0471483  34.4302426  92.8558557  82.3047947  30.9801473  93.8585834
  82.0484881  30.5798109  94.6894041  81.6800815  31.6945267  93.7335973
  86.6160284  33.7197546  96.3657125  86.0559842  33.7890736  97.1388687
  86.0103788  33.5438531  95.6456621  64.0170435  31.6184587 104.1549665
  64.6629299  31.1083541 104.6436891  63.8087586  32.3553268 104.7293091
  76.5423827  38.6865434 109.6541806  77.4114987  38.8606087 109.2928441
  76.0630579  39.5059851 109.5317535  72.5374045  25.8824631  89.9073562
  72.5252715  26.8266471  90.0641833  73.4297467  25.6994777  89.6133023
  76.3526165  22.4767408  94.1619498  75.5858561  21.9225895  94.3076181
  76.7636870  22.5489277  95.0233650  68.3567926  28.7652204 108.2524680
  69.2199387  28.4089009 108.4628004  67.7833337  28.4266099 108.9400084
  88.2016303  50.3954060  99.0587081  88.8394713  50.2760808  98.3550421
  88.0837146  51.3434904  99.1175033  85.0106009  50.3481488  98.9948605
  84.6724521  50.2322553  98.1069140  85.8795777  49.9472653  98.9749612
  85.4925792  51.5016340 104.9534811  85.4814433  51.1069138 104.0815315
  85.6546432  50.7682413 105.5468582  82.2133053  54.2853452 103.9013995
  81.9222919  55.1899083 103.7860661  82.8490038  54.3269979 104.6158064
  83.1389260  51.6630300 100.4915355  83.7352832  51.4386323  99.7772317
  83.1964232  50.9215046 101.0940802  87.7557571  48.1205514  96.1340289
  88.5420661  47.7024937  95.7830706  88.0196276  49.0251606  96.3021937
  87.9267649  53.5578364  90.8328946  87.2913482  53.6312991  91.5449850
  87.5965055  54.1471963  90.1548025  93.1565998  48.0580747  97.0373267
  93.8891170  47.4879964  97.2711097  92.4005354  47.6702348  97.4779773
  90.6791419  41.7702321 101.4967876  90.3474744  42.6397732 101.2729091
  90.0837032  41.4538605 102.1761906  87.1722938  53.9714867 100.8963789
  86.8723661  54.8739906 100.7879596  86.8273998  53.7047051 101.7484941
  90.5720082  46.4897408  98.5761226  89.6636959  46.4212816  98.2819987
  90.5207678  46.9669352  99.4043051  82.1543718  60.7359188  93.8634756
  82.0767748  61.6867013  93.9423237  81.5505362  60.3905060  94.5209683
  84.6460948  47.9087053 106.5196123  83.8694282  48.4680973 106.5098988
  85.2851511  48.3943836 107.0410993  92.4381729  44.6913846 100.3539100
  91.7956109  44.9846379  99.7078894  91.9336657  44.5766766 101.1592297
  90.0921892  48.4377019  91.0424959  91.0039748  48.6704406  90.8672657
  89.5831539  49.0214063  90.4800038  82.9007320  50.7172506 106.0814090
  83.6422005  51.2557550 105.8048914  82.1944306  51.3438795 106.2385642
  88.3762660  52.8601647 104.6786252  88.7846016  52.4184057 103.9340884
  87.6539921  52.2854274 104.9320445  84.7293730  47.7974254 102.0519809
  85.5754925  48.2213667 102.1954458  84.6692368  47.1407878 102.7458372
  88.6991474  53.4202838  98.4338541  88.0700337  53.5848552  97.7314608
  88.3117137  53.8344447  99.2049505  92.5780706  54.3557275  95.7882904
  91.8931745  54.7356177  95.2379938  92.6624556  54.9652602  96.5214852
  87.8793175  45.4578622 103.7100982  87.6354107  46.2120683 103.1735258
  88.1553106  45.8363970 104.5448229  89.8331638  52.0017234 102.3878248
  90.0448533  52.6448994 101.7112629  89.7861386  51.1679551 101.9200178
  87.4357867  44.6135055  99.2914820  86.5742346  44.9116309  99.5831558
  87.4620302  44.8305454  98.3595853  81.6368684  47.8712155 106.8829400
  81.0067345  48.5528435 107.1164797  81.5304772  47.7595236 105.9382538
  90.9477466  54.8789190 100.5600605  91.7694910  54.4769377 100.2783287
  90.9439869  54.7757424 101.5116721  84.7134069  54.4273233 102.7161316
  84.7778502  54.8893640 103.5519488  84.0044993  53.7970598 102.8443626
  99.0383459  51.2227938  96.9085577  98.2847167  50.6535336  96.7529581
  99.1731000  51.1890603  97.8556211  84.4282087  56.0941341  92.5840296
  84.2927762  56.9392876  93.0125144  84.9691900  56.2960618  91.8206230
  80.9149427  42.1732920 109.2454651  80.5216372  41.6199119 109.9202295
  81.7315567  42.4843499 109.6361169  79.6906369  56.7282535  95.2390974
  79.8672997  57.6500500  95.0511958  80.4863203  56.4140954  95.6685354
  83.8317388  43.5890800 106.8374908  84.5727101  44.1897953 106.7579370
  84.0635310  42.8468437 106.2792950  78.9758726  48.7747167 105.1153137
  78.8612241  47.8732424 105.4160236  78.1203243  49.0210864 104.7637954
  86.0550563  56.7164907 106.7140638  85.6114418  55.9301286 106.3961543
  86.7167777  56.9044058 106.0484529  80.8137685  58.2460709 101.2401317
  81.3645110  58.1177772 100.4678311  79.9749161  58.5455598 100.8896209
  88.1531801  56.9967707 104.7422039  88.1350277  57.8176588 104.2502309
  89.0751722  56.8721782 104.9672181  84.6104856  54.5111837 105.5845548
  85.1433192  53.7500125 105.3544856  84.0818937  54.2185488 106.3269702
  87.7774551  39.6171902 101.1139189  87.4338820  40.5073544 101.0378300
  88.1453513  39.4273560 100.2508774  87.7424833  49.6080514  89.6211625
  87.2271457  50.3785118  89.8600012  87.4702142  48.9345650  90.2444686
  86.8571091  41.9876558  99.0788423  86.3535887  41.9506693  98.2656228
  87.1501698  42.8969300  99.1385079  83.1013977  42.0715287  98.0854604
  83.9666974  41.8758096  97.7260494  83.1691486  41.8425639  99.0123961
  92.7159107  52.3612868  91.5564798  91.9388550  52.0224028  91.1119960
  93.3950588  52.3665491  90.8819763  85.9757568  53.6397829  93.0964360
  85.4478930  52.9050589  92.7837597  85.4745071  54.4172505  92.8504328
  90.9550414  51.8346850  98.2131406  90.2974089  52.5246111  98.3011535
  91.7590814  52.2243281  98.5565392  89.7655873  50.1891222  96.2635348
  90.2787755  50.8221214  96.7657058  90.4157097  49.5892418  95.8978708
  87.0278247  60.1675546  89.0196019  86.3539946  60.4707243  89.6280977
  87.4144069  60.9704627  88.6701476  86.2436704  47.6640678  98.5093688
  85.3259265  47.8855625  98.3515376  86.6596848  47.7386988  97.6505396
  87.0271752  49.0632093  93.6396369  87.7743571  49.5753491  93.3303491
  87.2963341  48.7416146  94.5000762  90.5317669  55.1697224  94.3914490
  90.0779996  54.3288134  94.4479681  89.9011636  55.8058622  94.7289271
  89.4750589  46.0989210  95.6215158  88.7373346  45.5866596  95.9525400
  89.7277362  45.6589591  94.8098435  88.9750609  57.0073720  95.3264309
  89.2673583  57.5678777  94.6076674  89.4849229  57.3002281  96.0817468
  89.5762216  38.8765462  96.2156927  89.8821093  38.0162825  95.9282842
  90.3014821  39.4683082  96.0155921  83.9384234  57.7854071  96.4157762
  83.8960413  58.0114918  95.4866294  84.8546933  57.5517446  96.5643563
  87.3849868  48.2538139 103.3138391  87.7399255  48.4809612 104.1732857
  88.0321999  48.5856516 102.6915646  93.1147605  51.3756575  94.0187720
  92.9765503  51.5658171  93.0908909  92.7583823  52.1375958  94.4755771
  81.2789731  45.3614670 100.0984732  81.9189110  45.2203429  99.4007695
  80.4467261  45.0749183  99.7223334  93.1416984  53.4433102  99.0298992
  93.5753491  53.3508391  99.8782046  93.8548565  53.4190602  98.3919008
  82.0550035  54.6617100  96.2119725  82.8490633  54.1667421  96.0102299
  81.3441727  54.1334964  95.8487430  86.8744879  57.0435196 100.5632092
  86.9281901  57.6126132 101.3309808  86.0059660  57.2137081 100.1986129
  79.7543272  46.7452752 102.0456543  80.4266326  46.5370114 101.3969192
  78.9273059  46.5474838 101.6061776  94.0032534  53.4856803 101.5631877
  94.1968424  54.3902613 101.8091152  93.9033152  53.0264222 102.3970462
  85.6568844  43.3714693 104.0622204  85.0096759  44.0704643 103.9686681
  86.4269860  43.8050837 104.4298452  89.0647642  53.6363545 107.1372758
  88.9133149  53.4074097 106.2202841  89.0552322  54.5934147 107.1504103
  85.8332979  51.2095458 102.1219024  86.7625039  51.3606618 101.9487991
  85.4124009  51.2979479 101.2667670  84.6321311  55.2346122  99.8917562
  84.4932396  54.8664907 100.7643500  83.8435907  55.7493762  99.7201519
  85.2269463  60.3355219  91.2343098  85.4021218  59.8643262  92.0488721
  84.5402251  60.9620985  91.4624359  86.1826526  54.6127725  97.2806399
  85.8476358  54.5728495  98.1764049  85.6830471  53.9472441  96.8076810
  80.1570770  50.0195355 102.8058981  80.0190568  49.2875594 103.4070520
  81.0675693  49.9304255 102.5243168  82.7853070  49.7315314 102.2942660
  83.4952689  49.0908507 102.2529279  82.7422379  49.9828209 103.2168841
  90.7739849  56.6682668 105.2149239  90.7152395  55.9841888 104.5479822
  91.1759367  57.4101658 104.7629865  81.4982004  46.7180532 104.1138300
  80.9619361  46.2671271 104.7659896  80.9098713  46.8526441 103.3708764
  79.7930548  63.4844582  98.0082958  80.0327146  64.1163106  98.6861977
  78.9499744  63.1332622  98.2948318  90.7757256  54.6322252 103.4463219
  89.8884035  54.2948174 103.5689618  91.3455807  53.9005283 103.6831984
  84.3058410  59.2923704 100.4124462  84.2328581  60.0978676 100.9243767
  83.8635803  59.4915670  99.5872484  84.0948189  58.5295474  93.9227284
  83.3115711  59.0717154  94.0165508  84.7940935  59.0469454  94.3221525
  87.4044839  44.3390104  96.5661489  87.9013539  43.5860066  96.2462559
  86.6331821  44.3754420  96.0004699  95.2574597  50.0430469  98.2079781
  95.2464473  50.9255185  97.8373714  94.3891976  49.6902020  98.0134318
  86.7657093  59.1910538 102.5682621  87.4785065  59.8258003 102.4958522
  86.2747122  59.2874404 101.7522623  88.4874620  53.0961791  94.1399913
  87.5530899  53.2163253  93.9704617  88.6651289  52.1934258  93.8759922
  83.9879808  46.4807487  96.2933174  83.6177596  45.9278527  96.9814079
  84.4838901  45.8765620  95.7408174  91.8747171  48.9379110  94.6749947
  92.3407624  49.7707102  94.6010249  92.3254672  48.4724092  95.3795205
  81.8169007  56.9404982 103.3888192  82.5178466  57.5741465 103.5417586
  81.3464122  57.2819713 102.6283831  89.9423403  55.2822931  91.6736099
  90.2183246  55.1679526  92.5829973  89.0727901  54.8840416  91.6348272
  89.8463834  41.3059697  98.7140848  88.9326914  41.5363924  98.8823055
  90.2756936  41.3898141  99.5654880  89.6170293  49.4949589 101.2140742
  88.9641743  49.7425496 100.5593195  89.9950673  48.6813727 100.8803219
  86.5777467  59.5309282  95.3168912  86.7599861  58.7130938  95.7796665
  87.4010453  59.7476974  94.8793802  86.9119632  58.4577467  92.5783961
  87.4407399  57.9469922  91.9654123  87.1747852  58.1419998  93.4429494
  85.6657866  50.2369400 107.7006779  84.9898503  50.1363529 108.3709154
  86.4885500  50.0808614 108.1642776  77.4136725  56.4741337 100.3219294
  77.9990162  55.7285025 100.4547199  77.2161563  56.7845293 101.2055958
  80.2675380  59.5092584  95.3381737  79.5985755  59.9938712  94.8545777
  80.1288250  59.7561804  96.2525115  84.4080649  61.5436328 101.9364395
  84.9598957  61.7067949 102.7013480  84.7486842  62.1340765 101.2644420
  79.3845142  43.8911477 102.5386280  79.4486468  44.7526308 102.1263678
  79.3212262  43.2785479 101.8058638  78.8597414  45.9634610 106.1859314
  79.4869453  45.5811687 106.7996838  78.0025333  45.7448812 106.5515007
  89.2591523  56.3697585 107.7913050  89.8031427  56.9827543 107.2968004
  88.6778368  56.9277163 108.3080063  87.5449036  59.4918303  98.9228077
  87.4200175  58.6908043  98.4139023  88.2028127  59.9864496  98.4342047
  89.6083944  57.2927323 100.5507627  88.6614280  57.1732674 100.4785954
  89.9566717  56.4049821 100.6333889  81.9683518  43.1821462 104.3745869
  82.4917919  43.4283759 105.1372179  81.7495851  44.0141497 103.9549007
  86.6130378  57.0880039  96.7511980  86.4655340  56.1596747  96.9319550
  87.4383871  57.1100130  96.2669055  90.2164499  57.9108598  97.8376852
  91.1411047  57.7051459  97.7001304  90.0479803  57.6624999  98.7466194
  83.1736063  44.1235157 102.0595540  82.8332883  43.3242970 102.4616220
  82.4675069  44.4236868 101.4872373  83.8252535  41.2084470 100.5122863
  84.6478604  40.7344948 100.3901753  84.0690598  41.9874953 101.0121549
  83.2087496  44.8906138  98.3695731  83.1949065  43.9947232  98.0328029
  83.9259924  44.8976802  99.0034017  85.0613627  45.3243478 100.4148858
  84.8031405  46.2460549 100.4133189  84.5298667  44.9273913 101.1049323
  90.0059816  58.4294266  93.1938944  90.1796693  57.8640688  92.4412796
  90.4988707  59.2295160  93.0118434  95.8599207  51.1930689  94.8129244
  96.3030353  50.4438014  94.4148367  94.9825717  51.1840825  94.4302976
  90.9934988  57.7461030  90.2935842  91.6885893  58.3667723  90.5123157
  91.3358138  56.8956381  90.5688220  76.6102797  49.5678831 104.1532660
  75.8684533  49.7161466 104.7397290  76.2895542  49.8287097 103.2899409
  92.8926411  55.1960735  91.8223173  93.4177735  55.5348008  91.0972493
  92.8048764  54.2607751  91.6386308  84.5546460  59.1094809 103.9513050
  84.8633586  58.8643956 104.8235749  85.3521942  59.3141448 103.4631920
  84.5767072  61.2632719  96.1818426  84.1372062  60.7709097  96.8751283
  85.3275189  60.7205686  95.9410501  77.0559411  57.4544260  96.1843054
  77.8817431  57.1548032  95.8041698  76.7053463  56.6851882  96.6332843
  82.0240944  56.8070728  98.2540728  81.4020953  56.1441433  97.9542956
  82.6945811  56.8331860  97.5714376  82.0965472  45.2852516 107.8473234
  82.1453627  46.1614639 107.4651003  82.6387986  44.7429909 107.2744877
  92.5820317  55.8293639 107.1274371  91.7915861  55.8117778 106.5878870
  92.3453672  56.3681933 107.8823407  92.7018192  52.6786106 104.4407099
  92.7516197  52.5136113 105.3822622  92.5932116  51.8113365 104.0504980
  81.5854451  55.3574651  91.7299188  81.7342571  56.0410116  91.0765861
  82.3920895  55.3379741  92.2448644  89.9921955  48.6617034 105.7566406
  90.8931818  48.5223498 105.4650404  90.0669929  48.8271488 106.6964584
  84.3264760  46.0383888 104.6019592  83.4568069  46.3317454 104.3302181
  84.5624240  46.6224333 105.3226856  94.2036389  55.0983047 104.6849121
  93.9121198  55.4613028 105.5212582  93.5908520  54.3850055 104.5062453
  95.4032072  52.6635927  97.2051691  96.2378963  53.1025731  97.3689252
  95.5391200  52.1874580  96.3859937  92.4523577  50.2215662 103.1529179
  92.9277699  50.4143308 102.3448030  91.5289143  50.2774847 102.9072563
  87.0303794  42.2563505 102.1185013  87.5485738  42.9924532 101.7931501
  86.6758927  42.5627499 102.9531772  87.2816388  38.6763788  97.6385909
  87.5618142  38.0086977  98.2646336  88.0666995  38.8692883  97.1260573
  85.0849857  57.8522782  89.2010936  84.5123824  58.4712969  88.7481408
  85.6582650  58.4022143  89.7350858  91.1525246  47.0981422 101.3857485
  92.1042669  47.1979519 101.4069709  90.9828697  46.3059690 101.8955569
  89.1739626  44.1837005 101.5716885  88.5789558  44.4642018 100.8763374
  88.8889323  44.6730906 102.3433627  88.3047116  58.1359932  90.3319518
  89.2377790  58.0705493  90.5352394  88.2170329  58.9716199  89.8734051
  90.9335133  57.4525802  87.2923466  90.8548765  57.1185666  88.1859223
  91.7544800  57.9447570  87.2914938  93.6313324  50.3187541 100.4999784
  93.5989644  49.3803542 100.6859468  94.2413948  50.3971578  99.7665609
  93.7807813  47.1098585 100.5458067  93.2646861  46.3257041 100.3587996
  94.6647761  46.7817301 100.7104587  91.4418540  40.8539600  96.5053880
  91.2443361  40.5454689  97.3897212  92.0518245  41.5801239  96.6351810
  99.4489874  51.3803548  99.6405821 100.1793263  51.1188836 100.2013524
  98.8396820  50.6432270  99.6807889  97.5305171  49.5211411 100.2380272
  96.8038335  49.3867376  99.6296764  97.1152458  49.8288239 101.0436990
  85.3535348  53.2401341 108.0027645  86.2738357  53.4179940 108.1967692
  85.3184931  52.2957386 107.8507344  83.2225285  46.7235581 110.0353175
  83.1222012  47.6729938 109.9665266  83.0046828  46.3953820 109.1629245
  90.5770993  42.8449032  93.7629076  89.9969662  43.5033837  93.3807128
  90.3106926  42.0226377  93.3516493  89.0274560  42.2454090  95.9650396
  89.5274338  42.3570625  95.1564715  89.6710168  41.9415143  96.6051204
  83.0856556  50.1532720 108.8518237  82.6023637  50.9533080 109.0582126
  83.1717495  50.1640665 107.8985681  79.0129893  54.0437254 100.8886671
  79.9673147  54.0121197 100.8216602  78.8142417  53.5827878 101.7036897
  79.6029275  52.6138371 103.4557468  80.4222164  53.1082449 103.4792306
  79.8766083  51.6970339 103.4275036  92.7110408  45.0295644  96.5339763
  93.4870798  45.5192096  96.8064380  91.9858542  45.4553698  96.9911633
  95.1482966  45.7423263  97.5913704  95.7427457  45.5018999  96.8807012
  95.2209550  45.0230394  98.2187240  77.3680122  59.5856874  97.9056869
  77.2334590  58.8257275  97.3394867  76.9512184  60.3097774  97.4385657
  89.3336895  50.5203659  93.0335714  89.2772097  50.9772210  92.1943346
  89.8865238  49.7594343  92.8558557  93.1441701  46.3093391  93.8585834
  92.8878635  45.9090026  94.6894041  92.5194569  47.0237185  93.7335973
  97.4554039  49.0489464  96.3657125  96.8953597  49.1182653  97.1388687
  96.8497542  48.8730449  95.6456621  80.5249248  60.4826191  98.1175311
  80.4081632  61.4271623  98.0154002  79.7041694  60.1799753  98.5061110
  90.4125782  55.2076327  88.9631904  91.2471386  54.7757525  88.7809379
  90.2510125  55.0358340  89.8908798  90.0671674  51.7108440  90.3288243
  90.0120478  51.5452711  89.3876687  89.4417730  52.4184473  90.4850433
  74.8564189  46.9476504 104.1549665  75.5023053  46.4375458 104.6436891
  74.6481341  47.6845186 104.7293091  87.3817582  54.0157352 109.6541806
  88.2508741  54.1898004 109.2928441  86.9024333  54.8351769 109.5317535
  81.5503762  61.1354453 101.3331240  82.4531009  61.1678063 101.6497735
  81.3241132  60.2054904 101.3477575  83.3057364  59.8885439  97.9941318
  82.3552995  59.8887301  97.8805691  83.6089850  59.1418174  97.4777353
  87.1919919  37.8059326  94.1619498  86.4252315  37.2517812  94.3076181
  87.6030624  37.8781194  95.0233650  79.1961680  44.0944121 108.2524680
  80.0593142  43.7380926 108.4628004  78.6227091  43.7558016 108.9400084
  99.0410057  65.7245978  99.0587081  99.6788467  65.6052725  98.3550421
  98.9230900  66.6726822  99.1175033  95.8499764  65.6773406  98.9948605
  95.5118275  65.5614471  98.1069140  96.7189532  65.2764571  98.9749612
  91.7086579  67.5308882  94.9845496  91.1451444  67.4398819  94.2161784
  91.5938974  66.7108787  95.4647989  96.3319547  66.8308258 104.9534811
  96.3208187  66.4361056 104.0815315  96.4940186  66.0974330 105.5468582
  89.2551011  69.0260074  97.8229717  90.0472303  68.6850899  97.4076016
  89.4947661  69.1355049  98.7431870  97.2886138  71.1979850  90.2959961
  96.6374118  71.7833930  89.9093975  98.0830501  71.7286045  90.3554999
  91.2141765  68.2868987  90.6947096  91.9872641  67.7397974  90.5559971
  91.5667164  69.1513237  90.9061557  93.0526808  69.6145369 103.9013995
  92.7616674  70.5191000 103.7860661  93.6883792  69.6561897 104.6158064
  93.9783015  66.9922218 100.4915355  94.5746587  66.7678240  99.7772317
  94.0357986  66.2506963 101.0940802  93.5508043  64.4461653  88.3265546
  93.8033564  63.9243175  87.5649009  92.6132602  64.2827799  88.4292229
  98.5951326  63.4497432  96.1340289  99.3814415  63.0316855  95.7830706
  98.8590030  64.3543524  96.3021937  98.7661403  68.8870282  90.8328946
  98.1307236  68.9604909  91.5449850  98.4358810  69.4763881  90.1548025
 103.9959753  63.3872665  97.0373267 104.7284925  62.8171882  97.2711097
 103.2399109  62.9994265  97.4779773  93.2704332  66.3489759  90.5289920
  93.1540590  65.6734663  91.1971005  93.3806592  65.8622133  89.7122074
  95.6135873  65.8099906  94.2336610  95.2494080  65.2830527  94.9449531
  96.4702989  65.4198375  94.0603095 101.5185173  57.0994239 101.4967876
 101.1868498  57.9689650 101.2729091 100.9230787  56.7830523 102.1761906
  95.2541360  60.8389806  89.2297958  95.4215762  61.7070042  89.5968429
  95.0638529  61.0017088  88.3059247  98.0116693  69.3006785 100.8963789
  97.7117416  70.2031824 100.7879596  97.6667752  69.0338968 101.7484941
  91.4629174  65.7520582  96.9300493  90.5379671  65.6196796  97.1378185
  91.7113588  66.5314801  97.4270435 101.4113837  61.8189325  98.5761226
 100.5030714  61.7504734  98.2819987 101.3601432  62.2961270  99.4043051
  95.2330581  63.2947464  90.2144625  95.1130206  63.7404514  91.0530105
  94.5383169  63.6432781  89.6558163  88.8237985  65.3953855  97.7644282
  88.9530367  65.6488334  98.6783694  88.1435437  65.9881563  97.4448937
  92.9937473  76.0651105  93.8634756  92.9161502  77.0158930  93.9423237
  92.3899116  75.7196978  94.5209683  95.4854702  63.2378971 106.5196123
  94.7088036  63.7972891 106.5098988  96.1245265  63.7235754 107.0410993
 103.2775483  60.0205764 100.3539100 102.6349863  60.3138297  99.7078894
 102.7730412  59.9058684 101.1592297 100.9315647  63.7668937  91.0424959
 101.8433503  63.9996324  90.8672657 100.4225294  64.3505981  90.4800038
  93.7401075  66.0464424 106.0814090  94.4815759  66.5849468 105.8048914
  93.0338060  66.6730713 106.2385642  99.2156414  68.1893565 104.6786252
  99.6239770  67.7475975 103.9340884  98.4933676  67.6146192 104.9320445
  95.5687484  63.1266171 102.0519809  96.4148680  63.5505585 102.1954458
  95.5086122  62.4699796 102.7458372  99.5385229  68.7494755  98.4338541
  98.9094091  68.9140469  97.7314608  99.1510891  69.1636365  99.2049505
 103.4174461  69.6849193  95.7882904 102.7325499  70.0648094  95.2379938
 103.5018310  70.2944520  96.5214852  98.7186930  60.7870540 103.7100982
  98.4747862  61.5412600 103.1735258  98.9946860  61.1655887 104.5448229
 100.6725392  67.3309152 102.3878248 100.8842288  67.9740912 101.7112629
 100.6255141  66.4971469 101.9200178  98.2751621  59.9426973  99.2914820
  97.4136100  60.2408226  99.5831558  98.3014056  60.1597372  98.3595853
  95.0913191  68.4869163  95.6988626  95.5551536  68.7656866  94.9093248
  94.8269989  67.5852608  95.5161716  91.9837272  68.0340645  98.6368389
  92.5538629  68.4627913  97.9985873  92.5745384  67.7523230  99.3352575
  94.0282077  64.6092316  92.5078191  94.7306120  65.0613359  92.9752117
  93.6962705  63.9676135  93.1358084  92.4762438  63.2004072 106.8829400
  91.8461099  63.8820353 107.1164797  92.3698526  63.0887154 105.9382538
  87.7707411  62.8675868  97.8095324  86.9806465  63.1233397  97.3335435
  88.2618658  63.6824206  97.9147365 101.7871220  70.2081108 100.5600605
 102.6088664  69.8061295 100.2783287 101.7833623  70.1049342 101.5116721
  89.7222156  63.2320448  94.7678801  88.9253320  63.3439142  95.2862297
  89.4947748  63.5707100  93.9019692  95.5527824  69.7565151 102.7161316
  95.6172256  70.2185558 103.5519488  94.8438748  69.1262516 102.8443626
  86.0545114  63.1206359 100.2410315  86.3053152  64.0053369 100.5067891
  86.5904662  62.9410960  99.4685407 109.8777213  66.5519856  96.9085577
 109.1240922  65.9827254  96.7529581 110.0124755  66.5182520  97.8556211
  95.2675842  71.4233258  92.5840296  95.1321516  72.2684794  93.0125144
  95.8085654  71.6252536  91.8206230  91.7543181  57.5024838 109.2454651
  91.3610127  56.9491037 109.9202295  92.5709321  57.8135417 109.6361169
  88.7205239  68.9408696  93.1568221  89.2329759  69.7351947  93.3073786
  89.3727952  68.2434987  93.0901823  90.5300124  72.0574453  95.2390974
  90.7066752  72.9792417  95.0511958  91.3256957  71.7432872  95.6685354
  94.6711142  58.9182717 106.8374908  95.4120856  59.5189870 106.7579370
  94.9029065  58.1760355 106.2792950  89.8152480  64.1039084 105.1153137
  89.7005995  63.2024342 105.4160236  88.9596998  64.3502781 104.7637954
  91.6531439  73.5752626 101.2401317  92.2038864  73.4469690 100.4678311
  90.8142915  73.8747515 100.8896209  95.4498610  69.8403754 105.5845548
  95.9826947  69.0792042 105.3544856  94.9212691  69.5477406 106.3269702
  98.6168305  54.9463820 101.1139189  98.2732574  55.8365462 101.0378300
  98.9847268  54.7565478 100.2508774  86.6854156  67.2697351  93.9327792
  87.5229378  67.6794359  93.7161499  86.8632423  66.3296793  93.9027986
  98.5818588  64.9372431  89.6211625  98.0665211  65.7077036  89.8600012
  98.3095896  64.2637567  90.2444686  96.1665699  59.7822132  94.6796863
  95.3107295  59.3928982  94.5002502  96.5792651  59.8614093  93.8196648
  97.6964845  57.3168475  99.0788423  97.1929641  57.2798610  98.2656228
  97.9895452  58.2261218  99.1385079  93.9407731  57.4007205  98.0854604
  94.8060728  57.2050014  97.7260494  94.0085240  57.1717557  99.0123961
 103.5552862  67.6904786  91.5564798 102.7782305  67.3515945  91.1119960
 104.2344343  67.6957409  90.8819763  98.3704891  62.8099523  91.4471406
  98.0655027  63.1245673  92.2981549  99.3235333  62.8880943  91.4898739
  96.8151323  68.9689747  93.0964360  96.2872684  68.2342506  92.7837597
  96.3138826  69.7464423  92.8504328 101.7944169  67.1638767  98.2131406
 101.1367843  67.8538029  98.3011535 102.5984568  67.5535199  98.5565392
  91.5470050  59.6309413  95.4570971  92.1213802  59.4084594  94.7244164
  92.1341033  59.6998107  96.2099573 100.6049628  65.5183140  96.2635348
 101.1181509  66.1513132  96.7657058 101.2550852  64.9184335  95.8978708
  91.8739638  61.6613874  89.4766857  91.0376950  61.9988561  89.7976131
  91.7344407  61.5262854  88.5393994  93.8492718  56.5050662  94.1846041
  93.1957131  56.1899679  93.5602655  93.8073192  55.8826402  94.9105864
  94.9603923  66.7869957  86.0999333  94.0530985  66.5559210  86.2990482
  95.4574955  65.9907576  86.2873314  97.8672002  75.4967464  89.0196019
  97.1933701  75.7999161  89.6280977  98.2537824  76.2996544  88.6701476
  97.0830459  62.9932595  98.5093688  96.1653020  63.2147542  98.3515376
  97.4990602  63.0678906  97.6505396  97.8665506  64.3924011  93.6396369
  98.6137325  64.9045408  93.3303491  98.1357096  64.0708064  94.5000762
  96.1392156  66.8882552  90.6223323  95.2303376  66.6041585  90.7195793
  96.1687240  67.3081630  89.7626630 101.3711424  70.4989141  94.3914490
 100.9173751  69.6580051  94.4479681 100.7405391  71.1350540  94.7289271
 100.3144343  61.4281127  95.6215158  99.5767100  60.9158514  95.9525400
 100.5671117  60.9881509  94.8098435  99.8144363  72.3365638  95.3264309
 100.1067337  72.8970695  94.6076674 100.3242984  72.6294199  96.0817468
 100.4155971  54.2057379  96.2156927 100.7214848  53.3454743  95.9282842
 101.1408576  54.7975000  96.0155921  86.7080327  64.6088066  94.6038525
  86.5104727  64.0157427  93.8789592  86.1526991  64.3040276  95.3214464
  94.6877050  64.5011172  96.7233118  94.7425660  63.5485009  96.6475595
  93.8768253  64.6570612  97.2074417  95.8368244  68.4291295  87.9611401
  95.3987674  67.7127154  87.5017039  96.5778685  68.6567410  87.3996493
  92.6269410  63.1188232  94.4823497  91.8137276  63.4182403  94.8888689
  93.1228405  62.7243921  95.1997979  94.7777988  73.1145989  96.4157762
  94.7354167  73.3406835  95.4866294  95.6940687  72.8809364  96.5643563
  98.2243622  63.5830057 103.3138391  98.5793010  63.8101530 104.1732857
  98.8715753  63.9148433 102.6915646 103.9541359  66.7048493  94.0187720
 103.8159258  66.8950089  93.0908909 103.5977578  67.4667875  94.4755771
  92.1183485  60.6906588 100.0984732  92.7582865  60.5495347  99.4007695
  91.2861016  60.4041101  99.7223334 103.9810739  68.7725020  99.0298992
 104.4147245  68.6800309  99.8782046 104.6942319  68.7482520  98.3919008
  92.8943789  69.9909018  96.2119725  93.6884388  69.4959338  96.0102299
  92.1835481  69.4626881  95.8487430  97.7138634  72.3727114 100.5632092
  97.7675656  72.9418050 101.3309808  96.8453415  72.5428999 100.1986129
  89.2026553  64.1352100  92.2879477  88.2724141  64.0736555  92.5049439
  89.2984025  63.6128053  91.4916118  89.1212102  60.6606913  94.8757719
  89.3818919  61.5752246  94.7666879  89.9429274  60.1931355  95.0254332
  90.5937027  62.0744670 102.0456543  91.2660080  61.8662032 101.3969192
  89.7666813  61.8766756 101.6061776 104.8426288  68.8148720 101.5631877
 105.0362178  69.7194531 101.8091152 104.7426906  68.3556139 102.3970462
  96.4962599  58.7006611 104.0622204  95.8490514  59.3996560 103.9686681
  97.2663614  59.1342755 104.4298452  96.6726733  66.5387376 102.1219024
  97.6018793  66.6898535 101.9487991  96.2517763  66.6271396 101.2667670
  95.4715065  70.5638040  99.8917562  95.3326151  70.1956824 100.7643500
  94.6829661  71.0785680  99.7201519  96.0663217  75.6647137  91.2343098
  96.2414973  75.1935180  92.0488721  95.3796005  76.2912903  91.4624359
  97.0220280  69.9419643  97.2806399  96.6870113  69.9020413  98.1764049
  96.5224226  69.2764359  96.8076810  90.9964524  65.3487273 102.8058981
  90.8584322  64.6167512 103.4070520  91.9069448  65.2596173 102.5243168
  99.9579472  67.2875677  87.5543459  99.3408643  66.5622505  87.4576512
  99.4895960  68.0485037  87.2110533  93.6246825  65.0607232 102.2942660
  94.3346443  64.4200424 102.2529279  93.5816133  65.3120127 103.2168841
  92.3375759  62.0472450 104.1138300  91.8013116  61.5963188 104.7659896
  91.7492467  62.1818359 103.3708764  90.6324302  78.8136499  98.0082958
  90.8720901  79.4455023  98.6861977  89.7893499  78.4624539  98.2948318
  91.7478018  61.5061101  86.6764763  90.8707484  61.3849902  86.3127010
  92.2235771  60.7147180  86.4243652 101.6151011  69.9614169 103.4463219
 100.7277790  69.6240091 103.5689618 102.1849562  69.2297201 103.6831984
  83.2680158  66.2938261  96.7706270  83.9551198  65.9799991  96.1827286
  83.1128287  67.1979626  96.4973522  88.0714880  61.1828458 101.1991294
  87.9873069  60.5754127 100.4641704  87.2497586  61.6737476 101.2000790
  95.1452164  74.6215622 100.4124462  95.0722336  75.4270593 100.9243767
  94.7029557  74.8207588  99.5872484  94.9341944  73.8587392  93.9227284
  94.1509466  74.4009072  94.0165508  95.6334689  74.3761371  94.3221525
  98.2438594  59.6682021  96.5661489  98.7407293  58.9151984  96.2462559
  97.4725575  59.7046338  96.0004699 106.0968351  65.3722387  98.2079781
 106.0858228  66.2547102  97.8373714 105.2285731  65.0193938  98.0134318
  99.3268375  68.4253708  94.1399913  98.3924653  68.5455171  93.9704617
  99.5045043  67.5226175  93.8759922  94.8273563  61.8099404  96.2933174
  94.4571350  61.2570445  96.9814079  95.3232655  61.2057538  95.7408174
 102.7140926  64.2671028  94.6749947 103.1801378  65.0999019  94.6010249
 103.1648426  63.8016009  95.3795205  92.6562761  72.2696899 103.3888192
  93.3572221  72.9033382 103.5417586  92.1857876  72.6111631 102.6283831
 100.7817157  70.6114849  91.6736099 101.0577001  70.4971444  92.5829973
  99.9121656  70.2132334  91.6348272 100.6857589  56.6351615  98.7140848
  99.7720669  56.8655842  98.8823055 101.1150690  56.7190059  99.5654880
 100.4564047  64.8241507 101.2140742  99.8035497  65.0717414 100.5593195
 100.8344427  64.0105645 100.8803219  97.4171221  74.8601200  95.3168912
  97.5993616  74.0422856  95.7796665  98.2404207  75.0768892  94.8793802
  97.7513387  73.7869385  92.5783961  98.2801153  73.2761840  91.9654123
  98.0141606  73.4711915  93.4429494  96.5051620  65.5661318 107.7006779
  95.8292257  65.4655447 108.3709154  97.3279254  65.4100532 108.1642776
  88.2530479  71.8033254 100.3219294  88.8383916  71.0576942 100.4547199
  88.0555318  72.1137211 101.2055958  91.1069135  74.8384502  95.3381737
  90.4379510  75.3230629  94.8545777  90.9682004  75.0853722  96.2525115
  82.8448134  64.3738855  99.0423738  82.8832234  63.8402445  99.8360856
  82.3388427  63.8474060  98.4234715  90.2238896  59.2203395 102.5386280
  90.2880223  60.0818226 102.1263678  90.1606017  58.6077397 101.8058638
  89.6991169  61.2926528 106.1859314  90.3263208  60.9103605 106.7996838
  88.8419088  61.0740730 106.5515007  86.4756712  63.1002957  92.1177669
  86.7710153  62.1913635  92.0644723  85.5744747  63.0790696  91.7958671
  98.3842790  74.8210221  98.9228077  98.2593930  74.0199961  98.4139023
  99.0421882  75.3156414  98.4342047  90.0050959  61.1758953  98.1005218
  89.2837544  61.7894921  97.9612691  90.7944214  61.7116718  98.0221864
 100.4477699  72.6219241 100.5507627  99.5008034  72.5024592 100.4785954
 100.7960472  71.7341739 100.6333889  92.8077272  58.5113380 104.3745869
  93.3311674  58.7575676 105.1372179  92.5889605  59.3433415 103.9549007
  88.2044553  60.7817054  92.2416994  87.8757259  59.9014433  92.0592100
  88.5583924  60.7264723  93.1293383  97.4524132  72.4171957  96.7511980
  97.3049095  71.4888664  96.9319550  98.2777626  72.4392048  96.2669055
  91.3186376  61.0690024  92.6092472  91.6582449  61.5975945  91.8871080
  91.7658497  61.4070430  93.3851038 101.0558254  73.2400516  97.8376852
 101.9804801  73.0343377  97.7001304 100.8873557  72.9916917  98.7466194
  94.0129817  59.4527075 102.0595540  93.6726638  58.6534888 102.4616220
  93.3068823  59.7528786 101.4872373  94.6646289  56.5376387 100.5122863
  95.4872358  56.0636865 100.3901753  94.9084353  57.3166871 101.0121549
  93.3054524  59.5664646  90.8085765  94.0262886  59.9445899  90.3049481
  92.6819828  60.2853523  90.9120743  97.4485646  60.2709795  91.7444097
  97.6649261  61.1534433  91.4432925  96.9679714  59.8796008  91.0149739
  92.1884868  63.2295508  98.3214841  92.0429448  63.5435811  99.2139123
  91.7110071  63.8480408  97.7685740  94.0481251  60.2198056  98.3695731
  94.0342819  59.3239149  98.0328029  94.7653679  60.2268720  99.0034017
  95.9007381  60.6535396 100.4148858  95.6425159  61.5752467 100.4133189
  95.3692422  60.2565831 101.1049323 100.8453570  73.7586183  93.1938944
 101.0190448  73.1932606  92.4412796 101.3382461  74.5587078  93.0118434
  86.6630530  65.7700852 101.2602503  86.1183998  66.5460660 101.3922777
  87.5409880  66.1171657 101.1021624  93.4518147  59.1012436  93.6383301
  93.5734058  58.1729082  93.8374189  93.1620189  59.1151122  92.7261617
  96.3209337  56.7867347  96.7750021  96.3431034  56.8506680  95.8202001
  96.7377396  55.9471855  96.9690527 106.6992961  66.5222606  94.8129244
 107.1424107  65.7729931  94.4148367 105.8219472  66.5132743  94.4302976
 101.8328743  73.0752948  90.2935842 102.5279647  73.6959640  90.5123157
 102.1751893  72.2248299  90.5688220  87.4496552  64.8970749 104.1532660
  86.7078288  65.0453384 104.7397290  87.1289296  65.1579014 103.2899409
 103.7320166  70.5252653  91.8223173 104.2571490  70.8639926  91.0972493
 103.6442518  69.5899668  91.6386308  95.4160826  76.5924636  96.1818426
  94.9765817  76.1001015  96.8751283  96.1668943  76.0497604  95.9410501
  87.8953165  72.7836177  96.1843054  88.7211185  72.4839949  95.8041698
  87.5447217  72.0143800  96.6332843  92.8634699  72.1362646  98.2540728
  92.2414708  71.4733351  97.9542956  93.5339566  72.1623777  97.5714376
  86.0961771  70.7022504  97.1431988  85.2593679  70.2744678  96.9615989
  86.0685416  70.8954947  98.0802779  92.9359226  60.6144434 107.8473234
  92.9847382  61.4906556 107.4651003  93.4781740  60.0721827 107.2744877
  92.4248206  70.6866569  91.7299188  92.5736326  71.3702033  91.0765861
  93.2314649  70.6671659  92.2448644 100.8315709  63.9908951 105.7566406
 101.7325572  63.8515416 105.4650404 100.9063684  64.1563406 106.6964584
  95.1658515  61.3675806 104.6019592  94.2961824  61.6609372 104.3302181
  95.4017995  61.9516251 105.3226856 106.2425826  67.9927844  97.2051691
 107.0772717  68.4317649  97.3689252 106.3784955  67.5166498  96.3859937
 103.2917332  65.5507579 103.1529179 103.7671454  65.7435226 102.3448030
 102.3682897  65.6066765 102.9072563  90.1800839  66.7131747  92.7360257
  89.9346880  65.8094077  92.9340467  90.3496753  66.7148897  91.7939735
  97.8697548  57.5855423 102.1185013  98.3879492  58.3216450 101.7931501
  97.5152681  57.8919416 102.9531772  89.4496486  62.4460104  90.2346419
  88.7565731  62.5204459  89.5786455  89.2048238  61.6820448  90.7567936
  98.1210143  54.0055705  97.6385909  98.4011896  53.3378894  98.2646336
  98.9060750  54.1984801  97.1260573  95.9243611  73.1814699  89.2010936
  95.3517578  73.8004886  88.7481408  96.4976405  73.7314061  89.7350858
 101.9919001  62.4273339 101.3857485 102.9436424  62.5271437 101.4069709
 101.8222451  61.6351608 101.8955569 100.0133380  59.5128923 101.5716885
  99.4183313  59.7933935 100.8763374  99.7283077  60.0022824 102.3433627
  99.1440871  73.4651849  90.3319518 100.0771544  73.3997411  90.5352394
  99.0564084  74.3008116  89.8734051 101.7728888  72.7817720  87.2923466
 101.6942519  72.4477583  88.1859223 102.5938554  73.2739488  87.2914938
 104.4707079  65.6479459 100.4999784 104.4383399  64.7095460 100.6859468
 105.0807702  65.7263496  99.7665609  96.3090410  64.5175512  86.5426988
  97.2549514  64.3881720  86.6115406  95.9304655  63.7790174  87.0196416
 104.6201567  62.4390503 100.5458067 104.1040616  61.6548959 100.3587996
 105.5041516  62.1109219 100.7104587 102.2812294  56.1831518  96.5053880
 102.0837115  55.8746606  97.3897212 102.8912000  56.9093157  96.6351810
 110.2883629  66.7095466  99.6405821 111.0187017  66.4480754 100.2013524
 109.6790574  65.9724188  99.6807889 108.3698926  64.8503329 100.2380272
 107.6432089  64.7159293  99.6296764 107.9546213  65.1580157 101.0436990
  94.4933327  62.4425488  86.4781873  93.5864782  62.1458601  86.5544587
  94.7709308  62.1455307  85.6116160  85.4111267  63.7631852  96.9280920
  85.0914051  62.9097160  96.6355294  84.8644695  63.9780430  97.6838887
  89.1891175  66.4794293 100.6450426  89.4077184  67.4111401 100.6638460
  89.6016948  66.1202267 101.4305230  96.1095392  56.9862378  92.6326115
  95.2996121  56.6409463  93.0081361  96.7979809  56.6769922  93.2213726
  98.0385941  56.0640425  94.2550411  98.5916979  56.4835878  94.9140435
  98.2756027  55.1376173  94.2973367  94.0619040  62.0527499 110.0353175
  93.9615767  63.0021856 109.9665266  93.8440582  61.7245738 109.1629245
  93.2632111  59.3012424  86.6193853  94.1251275  59.6267322  86.8789670
  93.4482456  58.5143920  86.1066918  85.2799527  67.3834763  98.8974041
  84.5862999  66.9688716  98.3843996  86.0272518  67.4255300  98.3007460
 101.4164748  58.1740950  93.7629076 100.8363417  58.8325754  93.3807128
 101.1500681  57.3518295  93.3516493  99.8668314  57.5746008  95.9650396
 100.3668093  57.6862542  95.1564715 100.5103922  57.2707061  96.6051204
  93.9250310  65.4824637 108.8518237  93.4417392  66.2824998 109.0582126
  94.0111249  65.4932582 107.8985681  87.1936270  67.3153017  96.7740056
  87.1706958  67.4140704  95.8221939  87.5036906  68.1618168  97.0957222
  89.8523648  69.3729172 100.8886671  90.8066901  69.3413115 100.8216602
  89.6536171  68.9119796 101.7036897  90.4423030  67.9430288 103.4557468
  91.2615919  68.4374367 103.4792306  90.7159837  67.0262256 103.4275036
 100.1989626  60.3341041  92.8185424  99.3115481  60.6190691  92.6005619
 100.6143615  60.1734804  91.9712701 103.5504162  60.3587562  96.5339763
 104.3264552  60.8484014  96.8064380 102.8252296  60.7845616  96.9911633
 105.9876721  61.0715181  97.5913704 106.5821211  60.8310917  96.8807012
 106.0603304  60.3522311  98.2187240  88.2073876  74.9148792  97.9056869
  88.0728344  74.1549193  97.3394867  87.7905939  75.6389692  97.4385657
  99.3432839  70.0985715  86.9133444 100.0468689  70.3035718  87.5291100
  98.6195488  70.6662477  87.1782527 100.1730650  65.8495576  93.0335714
 100.1165851  66.3064128  92.1943346 100.7258992  65.0886261  92.8558557
 103.9835456  61.6385308  93.8585834 103.7272390  61.2381944  94.6894041
 103.3588324  62.3529102  93.7335973 108.2947793  64.3781382  96.3657125
 107.7347351  64.4474571  97.1388687 107.6891297  64.2022366  95.6456621
  91.3643002  75.8118109  98.1175311  91.2475386  76.7563541  98.0154002
  90.5435448  75.5091670  98.5061110 101.2519537  70.5368244  88.9631904
 102.0865141  70.1049443  88.7809379 101.0903880  70.3650258  89.8908798
 100.9065429  67.0400358  90.3288243 100.8514233  66.8744629  89.3876687
 100.2811484  67.7476391  90.4850433  85.6957944  62.2768422 104.1549665
  86.3416807  61.7667376 104.6436891  85.4875095  63.0137104 104.7293091
  94.2161554  56.5408467  89.9073562  94.2040224  57.4850307  90.0641833
  95.1084976  56.3578612  89.6133023  92.3897516  76.4646371 101.3331240
  93.2924763  76.4969981 101.6497735  92.1634886  75.5346822 101.3477575
  94.1451118  75.2177357  97.9941318  93.1946749  75.2179219  97.8805691
  94.4483604  74.4710092  97.4777353  98.0313674  53.1351243  94.1619498
  97.2646070  52.5809730  94.3076181  98.4424379  53.2073112  95.0233650
  90.0355435  59.4236039 108.2524680  90.8986896  59.0672844 108.4628004
  89.4620846  59.0849934 108.9400084 102.5480334  82.8600800  94.9845496
 101.9845199  82.7690737  94.2161784 102.4332729  82.0400704  95.4647989
 108.1279893  86.5271768  90.2959961 107.4767872  87.1125848  89.9093975
 108.9224255  87.0577963  90.3554999 102.0535520  83.6160905  90.6947096
 102.8266396  83.0689892  90.5559971 102.4060919  84.4805154  90.9061557
 104.3901797  79.7753571  88.3265546 104.6427318  79.2535092  87.5649009
 103.4526357  79.6119716  88.4292229 109.6055158  84.2162200  90.8328946
 108.9700991  84.2896826  91.5449850 109.2752564  84.8055799  90.1548025
 104.1098086  81.6781677  90.5289920 103.9934344  81.0026580  91.1971005
 104.2200346  81.1914051  89.7122074 106.4529627  81.1391824  94.2336610
 106.0887834  80.6122445  94.9449531 107.3096743  80.7490293  94.0603095
 106.0935114  76.1681724  89.2297958 106.2609516  77.0361960  89.5968429
 105.9032283  76.3309005  88.3059247 106.0724335  78.6239381  90.2144625
 105.9523960  79.0696432  91.0530105 105.3776923  78.9724699  89.6558163
 111.7709401  79.0960854  91.0424959 112.6827257  79.3288241  90.8672657
 111.2619048  79.6797899  90.4800038 104.8675831  79.9384233  92.5078191
 105.5699875  80.3905277  92.9752117 104.5356460  79.2968052  93.1358084
  98.6101165  78.1967786  97.8095324  97.8200219  78.4525315  97.3335435
  99.1012413  79.0116124  97.9147365 100.5615911  78.5612365  94.7678801
  99.7647074  78.6731060  95.2862297 100.3341503  78.8999017  93.9019692
  99.5598993  84.2700614  93.1568221 100.0723514  85.0643864  93.3073786
 100.2121706  83.5726904  93.0901823  97.5247910  82.5989268  93.9327792
  98.3623132  83.0086277  93.7161499  97.7026178  81.6588710  93.9027986
 109.4212342  80.2664349  89.6211625 108.9058966  81.0368954  89.8600012
 109.1489651  79.5929485  90.2444686 107.0059453  75.1114050  94.6796863
 106.1501050  74.7220900  94.5002502 107.4186405  75.1906011  93.8196648
 104.7801486  72.7299123  98.0854604 105.6454483  72.5341931  97.7260494
 104.8478995  72.5009474  99.0123961 109.2098645  78.1391441  91.4471406
 108.9048781  78.4537590  92.2981549 110.1629088  78.2172861  91.4898739
 107.6545077  84.2981664  93.0964360 107.1266439  83.5634424  92.7837597
 107.1532580  85.0756341  92.8504328 102.3863805  74.9601331  95.4570971
 102.9607557  74.7376512  94.7244164 102.9734787  75.0290025  96.2099573
 102.7133392  76.9905792  89.4766857 101.8770704  77.3280478  89.7976131
 102.5738162  76.8554771  88.5393994 104.6886473  71.8342580  94.1846041
 104.0350885  71.5191597  93.5602655 104.6466947  71.2118320  94.9105864
 105.7997678  82.1161875  86.0999333 104.8924739  81.8851128  86.2990482
 106.2968709  81.3199494  86.2873314 108.7059261  79.7215929  93.6396369
 109.4531080  80.2337326  93.3303491 108.9750850  79.3999982  94.5000762
 106.9785911  82.2174470  90.6223323 106.0697130  81.9333502  90.7195793
 107.0080995  82.6373548  89.7626630 111.1538098  76.7573045  95.6215158
 110.4160855  76.2450431  95.9525400 111.4064871  76.3173427  94.8098435
 111.2549725  69.5349297  96.2156927 111.5608602  68.6746660  95.9282842
 111.9802330  70.1266917  96.0155921  97.5474081  79.9379984  94.6038525
  97.3498481  79.3449344  93.8789592  96.9920745  79.6332194  95.3214464
 106.6761999  83.7583213  87.9611401 106.2381429  83.0419072  87.5017039
 107.4172440  83.9859328  87.3996493 103.4663165  78.4480150  94.4823497
 102.6531030  78.7474320  94.8888689 103.9622159  78.0535839  95.1997979
 100.0420307  79.4644018  92.2879477  99.1117895  79.4028473  92.5049439
 100.1377779  78.9419970  91.4916118  99.9605856  75.9898830  94.8757719
 100.2212673  76.9044164  94.7666879 100.7823028  75.5223273  95.0254332
 110.7973226  82.6167595  87.5543459 110.1802397  81.8914423  87.4576512
 110.3289715  83.3776955  87.2110533 102.5871772  76.8353019  86.6764763
 101.7101239  76.7141820  86.3127010 103.0629525  76.0439097  86.4243652
  94.1073912  81.6230179  96.7706270  94.7944952  81.3091909  96.1827286
  93.9522041  82.5271543  96.4973522  98.9108635  76.5120375 101.1991294
  98.8266823  75.9046045 100.4641704  98.0891341  77.0029394 101.2000790
 109.0832348  74.9973939  96.5661489 109.5801048  74.2443901  96.2462559
 108.3119330  75.0338256  96.0004699 105.6667317  77.1391322  96.2933174
 105.2965105  76.5862362  96.9814079 106.1626410  76.5349455  95.7408174
  93.6841889  79.7030772  99.0423738  93.7225988  79.1694363  99.8360856
  93.1782181  79.1765978  98.4234715  97.3150466  78.4294874  92.1177669
  97.6103907  77.5205553  92.0644723  96.4138502  78.4082614  91.7958671
 100.8444713  76.5050871  98.1005218 100.1231299  77.1186839  97.9612691
 101.6337969  77.0408636  98.0221864  99.0438308  76.1108972  92.2416994
  98.7151014  75.2306351  92.0592100  99.3977678  76.0556641  93.1293383
 102.1580131  76.3981942  92.6092472 102.4976203  76.9267863  91.8871080
 102.6052251  76.7362348  93.3851038 104.1448278  74.8956563  90.8085765
 104.8656640  75.2737816  90.3049481 103.5213582  75.6145440  90.9120743
 108.2879401  75.6001712  91.7444097 108.5043015  76.4826350  91.4432925
 107.8073468  75.2087926  91.0149739 104.8875005  75.5489974  98.3695731
 104.8736574  74.6531067  98.0328029 105.6047433  75.5560637  99.0034017
 104.2911901  74.4304354  93.6383301 104.4127812  73.5021000  93.8374189
 104.0013943  74.4443040  92.7261617 107.1603091  72.1159264  96.7750021
 107.1824788  72.1798597  95.8202001 107.5771150  71.2763773  96.9690527
 103.2641960  86.0158487  91.7299188 103.4130080  86.6993951  91.0765861
 104.0708403  85.9963577  92.2448644 101.0194593  82.0423664  92.7360257
 100.7740635  81.1385994  92.9340467 101.1890508  82.0440815  91.7939735
 100.2890241  77.7752022  90.2346419  99.5959485  77.8496377  89.5786455
 100.0441992  77.0112365  90.7567936 108.9603897  69.3347623  97.6385909
 109.2405651  68.6670812  98.2646336 109.7454504  69.5276719  97.1260573
 106.7637366  88.5106617  89.2010936 106.1911333  89.1296804  88.7481408
 107.3370159  89.0605979  89.7350858 112.6122642  88.1109637  87.2923466
 112.5336274  87.7769501  88.1859223 113.4332309  88.6031405  87.2914938
 107.1484164  79.8467430  86.5426988 108.0943269  79.7173638  86.6115406
 106.7698409  79.1082092  87.0196416 113.1206049  71.5123436  96.5053880
 112.9230870  71.2038524  97.3897212 113.7305754  72.2385075  96.6351810
 105.3327081  77.7717406  86.4781873 104.4258537  77.4750519  86.5544587
 105.6103062  77.4747224  85.6116160  96.2505022  79.0923770  96.9280920
  95.9307806  78.2389078  96.6355294  95.7038450  79.3072348  97.6838887
 106.9489147  72.3154296  92.6326115 106.1389875  71.9701381  93.0081361
 107.6373564  72.0061840  93.2213726 108.8779695  71.3932343  94.2550411
 109.4310734  71.8127796  94.9140435 109.1149782  70.4668091  94.2973367
 104.1025866  74.6304341  86.6193853 104.9645030  74.9559240  86.8789670
 104.2876210  73.8435837  86.1066918  96.1193282  82.7126681  98.8974041
  95.4256753  82.2980634  98.3843996  96.8666273  82.7547218  98.3007460
 112.2558502  73.5032868  93.7629076 111.6757171  74.1617672  93.3807128
 111.9894435  72.6810212  93.3516493 110.7062069  72.9037926  95.9650396
 111.2061847  73.0154460  95.1564715 111.3497677  72.5998978  96.6051204
  98.0330024  82.6444935  96.7740056  98.0100712  82.7432622  95.8221939
  98.3430661  83.4910086  97.0957222 111.0383380  75.6632958  92.8185424
 110.1509235  75.9482609  92.6005619 111.4537369  75.5026722  91.9712701
 110.1826594  85.4277633  86.9133444 110.8862444  85.6327635  87.5291100
 109.4589243  85.9954395  87.1782527 111.0124404  81.1787494  93.0335714
 110.9559605  81.6356046  92.1943346 111.5652747  80.4178179  92.8558557
 114.8229210  76.9677226  93.8585834 114.5666144  76.5673862  94.6894041
 114.1982078  77.6821020  93.7335973 112.0913291  85.8660162  88.9631904
 112.9258895  85.4341361  88.7809379 111.9297634  85.6942176  89.8908798
 111.7459183  82.3692275  90.3288243 111.6907987  82.2036547  89.3876687
 111.1205239  83.0768308  90.4850433 105.0555309  71.8700384  89.9073562
 105.0433979  72.8142224  90.0641833 105.9478731  71.6870530  89.6133023
 108.8707428  68.4643161  94.1619498 108.1039824  67.9101648  94.3076181
 109.2818133  68.5365030  95.0233650  47.2749286  -5.4969049  84.7328265
  47.5145884  -4.8650525  85.4107283  46.4318482  -5.8481009  85.0193624
  59.1905317  -1.4504748  81.7090803  58.6270182  -1.5414811  80.9407091
  59.0757712  -2.2704844  82.1893296  56.7369749   0.0446444  84.5475023
  57.5291041  -0.2962732  84.1321323  56.9766399   0.1541419  85.4677177
  64.7704876   2.2166220  77.0205268  64.1192856   2.8020300  76.6339282
  65.5649239   2.7472415  77.0800305  58.6960503  -0.6944643  77.4192402
  59.4691379  -1.2415656  77.2805278  59.0485902   0.1699606  77.6306864
  60.5345546   0.6331739  90.6259302  60.2435412   1.5377370  90.5105968
  61.1702530   0.6748267  91.3403371  66.2480141  -0.0943348  77.5574252
  65.6125974  -0.0208722  78.2695157  65.9177547   0.4950250  76.8793331
  65.4935431   0.3193155  87.6209095  65.1936154   1.2218193  87.5124902
  65.1486490   0.0525338  88.4730248  56.3056723  -3.5859775  84.4889589
  56.4349104  -3.3325296  85.4029000  55.6254174  -2.9932067  84.1694244
  60.4756210   7.0837475  80.5880063  60.3980240   8.0345300  80.6668543
  59.8717854   6.7383347  81.2454989  62.5731929  -0.4944467  82.4233932
  63.0370274  -0.2156764  81.6338555  62.3088727  -1.3961023  82.2407023
  59.4656010  -0.9472986  85.3613696  60.0357367  -0.5185717  84.7231180
  60.0564122  -1.2290401  86.0597881  63.0346562   0.7751520  89.4406622
  63.0990994   1.2371928  90.2764794  62.3257486   0.1448885  89.5688932
  62.7494579   2.4419628  79.3085603  62.6140254   3.2871164  79.7370450
  63.2904392   2.6438906  78.5451536  56.2023977  -0.0404934  79.8813528
  56.7148497   0.7538316  80.0319092  56.8546690  -0.7378644  79.8147129
  58.0118861   3.0760822  81.9636281  58.1885490   3.9978787  81.7757265
  58.8075695   2.7619241  82.3930661  64.3763056   3.0643194  93.4385945
  63.9326910   2.2779573  93.1206849  65.0380269   3.2522345  92.7729836
  59.1350177   4.5938996  87.9646623  59.6857602   4.4656059  87.1923617
  58.2961653   4.8933885  87.6141516  66.4744294   3.3445994  91.4667346
  66.4562769   4.1654875  90.9747615  67.3964214   3.2200070  91.6917487
  62.9317348   0.8590124  92.3090854  63.4645685   0.0978412  92.0790162
  62.4031429   0.5663776  93.0515009  54.1672893  -1.7116280  80.6573098
  55.0048116  -1.3019271  80.4406806  54.3451161  -2.6516838  80.6273292
  64.2970061  -0.0123884  79.8209666  63.7691422  -0.7471124  79.5082904
  63.7957563   0.7650793  79.5749635  65.3490740   6.5153834  75.7441326
  64.6752438   6.8185530  76.3526283  65.7356562   7.3182914  75.3946783
  68.8530162   1.5175511  81.1159797  68.3992489   0.6766421  81.1724988
  68.2224128   2.1536909  81.4534577  67.2963101   3.3552008  82.0509615
  67.5886075   3.9157065  81.3321981  67.8061721   3.6480569  82.8062774
  63.3186982  -0.5522335  74.6856708  62.8806412  -1.2686476  74.2262345
  64.0597423  -0.3246220  74.1241799  62.2596726   4.1332359  83.1403068
  62.2172905   4.3593205  82.2111600  63.1759425   3.8995733  83.2888870
  60.3762527   1.0095388  82.9365031  61.1703125   0.5145708  82.7347606
  59.6654219   0.4813251  82.5732737  65.1957371   3.3913483  87.2877399
  65.2494394   3.9604420  88.0555115  64.3272153   3.5615368  86.9231436
  62.9533803   1.5824410  86.6162868  62.8144889   1.2143194  87.4888806
  62.1648399   2.0972049  86.4446826  63.5481955   6.6833506  77.9588405
  63.7233711   6.2121549  78.7734027  62.8614743   7.3099272  78.1869665
  64.5039018   0.9606012  84.0051706  64.1688851   0.9206782  84.9009356
  64.0042964   0.2950728  83.5322116  69.0952341   3.0160955  91.9394546
  69.0364887   2.3320175  91.2725129  69.4971860   3.7579945  91.4875172
  58.1143040   9.8322869  84.7328265  58.3539638  10.4641393  85.4107283
  57.2712237   9.4810909  85.0193624  50.7498896  -2.6875369  83.4951577
  51.4369936  -3.0013639  82.9072592  50.5947024  -1.7834005  83.2218829
  62.6270902   5.6401991  87.1369769  62.5541073   6.4456963  87.6489073
  62.1848295   5.8393957  86.3117790  62.4160682   4.8773761  80.6472590
  61.6328204   5.4195442  80.7410815  63.1153427   5.3947741  81.0466832
  65.0869586   5.5388825  89.2927928  65.7997558   6.1736290  89.2203829
  64.5959614   5.6352691  88.4767929  60.1381499   3.2883269  90.1133498
  60.8390959   3.9219752  90.2662893  59.6676614   3.6298000  89.3529138
  68.2635895   1.6301219  78.3981405  68.5395739   1.5157813  79.3075279
  67.3940394   1.2318703  78.3593579  64.8989959   5.8787569  82.0414219
  65.0812353   5.0609225  82.5041971  65.7222945   6.0955262  81.6039109
  65.2332124   4.8055755  79.3029268  65.7619891   4.2948209  78.6899430
  65.4960344   4.4898285  80.1674801  55.7349217   2.8219624  87.0464601
  56.3202654   2.0763312  87.1792505  55.5374056   3.1323581  87.9301265
  58.5887872   5.8570871  82.0627043  57.9198248   6.3416999  81.5791084
  58.4500742   6.1040092  82.9770422  50.3266872  -4.6074776  85.7669044
  50.3650971  -5.1411185  86.5606162  49.8207165  -5.1339570  85.1480021
  62.7293141   7.8914615  88.6609702  63.2811449   8.0546236  89.4258787
  63.0699334   8.4819053  87.9889727  67.5804015   2.7175872  94.5158356
  68.1243919   3.3305831  94.0213311  66.9990860   3.2755451  95.0325369
  65.8661528   5.8396590  85.6473384  65.7412668   5.0386330  85.1384329
  66.5240619   6.3342784  85.1587354  67.9296437   3.6405610  87.2752934
  66.9826772   3.5210962  87.2031261  68.2779210   2.7528108  87.3579196
  64.9342870   3.4358327  83.4757286  64.7867832   2.5075034  83.6564856
  65.7596363   3.4578417  82.9914362  68.5376992   4.2586885  84.5622159
  69.4623539   4.0529747  84.4246610  68.3692295   4.0103287  85.4711501
  68.3272308   4.7772553  79.9184251  68.5009185   4.2118975  79.1658103
  68.8201199   5.5773448  79.7363740  54.1449268  -3.2112778  87.9847809
  53.6002736  -2.4352970  88.1168084  55.0228618  -2.8641974  87.8266931
  69.3147480   4.0939317  77.0181149  70.0098385   4.7146010  77.2368463
  69.6570631   3.2434668  77.2933527  62.8758952   5.4573096  90.6758356
  63.1846079   5.2122243  91.5481056  63.6734434   5.6619735  90.1877226
  62.8979564   7.6111006  82.9063733  62.4584555   7.1187385  83.5996589
  63.6487681   7.0683974  82.6655808  55.3771903   3.8022547  82.9088361
  56.2029923   3.5026319  82.5287004  55.0265955   3.0330169  83.3578149
  60.3453436   3.1549015  84.9786034  59.7233446   2.4919720  84.6788262
  61.0158303   3.1810147  84.2959682  53.5780508   1.7208873  83.8677294
  52.7412417   1.2931048  83.6861296  53.5504154   1.9141317  84.8048086
  70.9032810   2.1771926  93.8519678  70.1128353   2.1596065  93.3124177
  70.6666164   2.7160220  94.6068714  59.9066943   1.7052938  78.4544495
  60.0555064   2.3888403  77.8011168  60.7133387   1.6858029  78.9693951
  57.6619576  -2.2681884  79.4605564  57.4165618  -3.1719554  79.6585774
  57.8315491  -2.2664733  78.5185042  63.4062349   4.2001069  75.9256242
  62.8336316   4.8191256  75.4726714  63.9795143   4.7500431  76.4596164
  66.6259609   4.4838219  77.0564825  67.5590282   4.4183781  77.2597700
  66.5382821   5.3194486  76.5979357  69.2547625   3.8004089  74.0168772
  69.1761257   3.4663953  74.9104530  70.0757292   4.2925857  74.0160245
  56.6709912  -2.5019338  87.3695733  56.8895922  -1.5702230  87.3883767
  57.0835686  -2.8611363  88.1550537  52.7618265  -1.5978867  85.6219348
  52.0681736  -2.0124914  85.1089302  53.5091256  -1.5558331  85.0252767
  54.6755007  -1.6660613  83.4985363  54.6525696  -1.5672926  82.5467246
  54.9855644  -0.8195462  83.8202529  57.3342385   0.3915542  87.6131977
  58.2885639   0.3599484  87.5461909  57.1354909  -0.0693835  88.4282203
  57.9241767  -1.0383342  90.1802775  58.7434656  -0.5439264  90.2037612
  58.1978575  -1.9551374  90.1520343  55.6892614   5.9335161  84.6302175
  55.5547082   5.1735562  84.0640173  55.2724676   6.6576061  84.1630964
  66.8251577   1.1172085  73.6378751  67.5287427   1.3222087  74.2536406
  66.1014226   1.6848847  73.9027834  58.8461740   6.8304478  84.8420618
  58.7294124   7.7749911  84.7399308  58.0254186   6.5278040  85.2306417
  68.7338275   1.5554614  75.6877211  69.5683878   1.1235812  75.5054685
  68.5722617   1.3836628  76.6154105  65.7030074   0.3635639  96.3787113
  66.5721234   0.5376291  96.0173748  65.2236825   1.1830056  96.2562842
  59.8716254   7.4832740  88.0576546  60.7743501   7.5156350  88.3743041
  59.6453624   6.5533191  88.0722882  61.6269856   6.2363727  84.7186625
  60.6765487   6.2365588  84.6050997  61.9302342   5.4896461  84.2022660
  77.3622550  12.0724265  85.7832387  78.0000960  11.9531012  85.0795727
  77.2443392  13.0205109  85.8420339  74.1712256  12.0251693  85.7193912
  73.8330767  11.9092758  84.8314447  75.0402024  11.6242858  85.6994918
  70.0299072  13.8787170  81.7090803  69.4663937  13.7877107  80.9407091
  69.9151467  13.0587074  82.1893296  74.6532039  13.1786545  91.6780118
  74.6420680  12.7839343  90.8060621  74.8152678  12.4452618  92.2713889
  67.5763504  15.3738361  84.5475023  68.3684795  15.0329186  84.1321323
  67.8160154  15.4833336  85.4677177  75.6098630  17.5458137  77.0205268
  74.9586610  18.1312218  76.6339282  76.4042993  18.0764332  77.0800305
  69.5354257  14.6347274  77.4192402  70.3085133  14.0876262  77.2805278
  69.8879656  15.4991524  77.6306864  71.3739300  15.9623657  90.6259302
  71.0829166  16.8669288  90.5105968  72.0096284  16.0040184  91.3403371
  72.2995507  13.3400505  87.2160661  72.8959079  13.1156528  86.5017624
  72.3570478  12.5985251  87.8186109  71.8720535  10.7939941  75.0510852
  72.1246056  10.2721462  74.2894315  70.9345094  10.6306086  75.1537536
  76.9163818   9.7975719  82.8585595  77.7026907   9.3795142  82.5076012
  77.1802522  10.7021811  83.0267244  77.0873895  15.2348569  77.5574252
  76.4519728  15.3083196  78.2695157  76.7571302  15.8242168  76.8793331
  82.3172245   9.7350952  83.7618574  83.0497417   9.1650169  83.9956403
  81.5611601   9.3472553  84.2025079  71.5916824  12.6968047  77.2535227
  71.4753082  12.0212950  77.9216311  71.7019084  12.2100420  76.4367380
  73.9348365  12.1578194  80.9581916  73.5706572  11.6308815  81.6694838
  74.7915481  11.7676663  80.7848402  73.5753852   7.1868093  75.9543265
  73.7428254   8.0548330  76.3213736  73.3851021   7.3495375  75.0304554
  76.3329185  15.6485072  87.6209095  76.0329908  16.5510111  87.5124902
  75.9880245  15.3817255  88.4730248  69.7841667  12.0998869  83.6545800
  68.8592163  11.9675083  83.8623491  70.0326080  12.8793088  84.1515742
  79.7326329   8.1667612  85.3006533  78.8243206   8.0983021  85.0065294
  79.6813925   8.6439557  86.1288358  73.5543073   9.6425751  76.9389932
  73.4342698  10.0882802  77.7775412  72.8595661   9.9911069  76.3803470
  67.1450478  11.7432143  84.4889589  67.2742859  11.9966622  85.4029000
  66.4647929  12.3359851  84.1694244  73.8067195   9.5857258  93.2441430
  73.0300529  10.1451178  93.2344294  74.4457758  10.0714041  93.7656300
  81.5987975   6.3684051  87.0784406  80.9562356   6.6616584  86.4324201
  81.0942904   6.2536971  87.8837603  79.2528139  10.1147224  77.7670266
  80.1645995  10.3474611  77.5917963  78.7437786  10.6984268  77.2045344
  72.0613567  12.3942711  92.8059397  72.8028251  12.9327755  92.5294220
  71.3550552  13.0209000  92.9630949  77.5368907  14.5371852  91.4031558
  77.9452263  14.0954262  90.6586191  76.8146168  13.9624479  91.6565751
  73.8899977   9.4744459  88.7765115  74.7361172   9.8983872  88.9199764
  73.8298614   8.8178083  89.4703678  77.8597721  15.0973042  85.1583847
  77.2306584  15.2618757  84.4559915  77.4723383  15.5114652  85.9294811
  81.7386953  16.0327480  82.5128211  81.0537991  16.4126382  81.9625244
  81.8230802  16.6422807  83.2460159  77.0399422   7.1348827  90.4346289
  76.7960354   7.8890887  89.8980565  77.3159353   7.5134175  91.2693536
  78.9937885  13.6787439  89.1123554  79.2054780  14.3219199  88.4357936
  78.9467633  12.8449756  88.6445485  76.5964114   6.2905260  86.0160127
  75.7348593   6.5886514  86.3076864  76.6226548   6.5075659  85.0841159
  73.4125683  14.8347451  82.4233932  73.8764029  15.1135154  81.6338555
  73.1482481  13.9330895  82.2407023  70.3049764  14.3818932  85.3613696
  70.8751121  14.8106200  84.7231180  70.8957876  14.1001517  86.0597881
  72.3494569  10.9570603  79.2323497  73.0518613  11.4091647  79.6997424
  72.0175198  10.3154422  79.8603391  70.7974931   9.5482360  93.6074707
  70.1673591  10.2298640  93.8410104  70.6911019   9.4365441  92.6627845
  66.0919903   9.2154156  84.5340631  65.3018957   9.4711684  84.0580742
  66.5831151  10.0302493  84.6392672  80.1083713  16.5559395  87.2845912
  80.9301156  16.1539582  87.0028593  80.1046116  16.4527629  88.2362028
  68.0434649   9.5798735  81.4924108  67.2465812   9.6917429  82.0107603
  67.8160241   9.9185387  80.6264998  73.8740316  16.1043438  89.4406622
  73.9384749  16.5663845  90.2764794  73.1651240  15.4740803  89.5688932
  64.3757606   9.4684646  86.9655622  64.6265645  10.3531656  87.2313198
  64.9117155   9.2889248  86.1930714  88.1989706  12.8998143  83.6330883
  87.4453414  12.3305541  83.4774888  88.3337247  12.8660808  84.5801518
  73.5888334  17.7711546  79.3085603  73.4534009  18.6163081  79.7370450
  74.1298146  17.9730823  78.5451536  70.0755673   3.8503125  95.9699958
  69.6822619   3.2969324  96.6447602  70.8921814   4.1613704  96.3606475
  67.0417731  15.2886984  79.8813528  67.5542252  16.0830234  80.0319092
  67.6940444  14.5913274  79.8147129  68.8512616  18.4052740  81.9636281
  69.0279244  19.3270705  81.7757265  69.6469449  18.0911159  82.3930661
  72.9923634   5.2661004  93.5620214  73.7333348   5.8668158  93.4824677
  73.2241557   4.5238642  93.0038257  68.1364972  10.4517372  91.8398444
  68.0218488   9.5502629  92.1405543  67.2809490  10.6981069  91.4883261
  75.2156810  18.3935112  93.4385945  74.7720664  17.6071491  93.1206849
  75.8774024  18.5814263  92.7729836  69.9743931  19.9230914  87.9646623
  70.5251356  19.7947977  87.1923617  69.1355407  20.2225803  87.6141516
  77.3138048  18.6737912  91.4667346  77.2956524  19.4946793  90.9747615
  78.2357968  18.5491987  91.6917487  73.7711102  16.1882041  92.3090854
  74.3039439  15.4270330  92.0790162  73.2425184  15.8955693  93.0515009
  65.0066648  13.6175638  80.6573098  65.8441870  14.0272646  80.4406806
  65.1844916  12.6775080  80.6273292  76.9031080  11.2850719  76.3456931
  76.3877704  12.0555323  76.5845319  76.6308389  10.6115855  76.9689993
  74.4878191   6.1300419  81.4042170  73.6319787   5.7407270  81.2247808
  74.9005143   6.2092380  80.5441955  76.0177338   3.6646763  85.8033729
  75.5142133   3.6276898  84.9901535  76.3107945   4.5739505  85.8630386
  72.2620224   3.7485492  84.8099911  73.1273220   3.5528301  84.4505801
  72.3297733   3.5195844  85.7369268  81.8765354  14.0383073  78.2810105
  81.0994797  13.6994233  77.8365267  82.5556835  14.0435696  77.6065070
  76.6917383   9.1577811  78.1716712  76.3867519   9.4723960  79.0226856
  77.6447825   9.2359231  78.2144045  75.1363815  15.3168034  79.8209666
  74.6085177  14.5820794  79.5082904  74.6351318  16.0942710  79.5749635
  80.1156661  13.5117054  84.9376713  79.4580336  14.2016316  85.0256841
  80.9197060  13.9013486  85.2810699  69.8682543   5.9787700  82.1816278
  70.4426295   5.7562882  81.4489471  70.4553525   6.0476395  82.9344879
  78.9262120  11.8661427  82.9880654  79.4394002  12.4991419  83.4902364
  79.5763344  11.2662623  82.6224014  70.1952130   8.0092161  76.2012163
  69.3589442   8.3466848  76.5221438  70.0556899   7.8741141  75.2639300
  72.1705210   2.8528949  80.9091347  71.5169623   2.5377966  80.2847962
  72.1285685   2.2304690  81.6351170  73.2816415  13.1348244  72.8244639
  72.3743477  12.9037498  73.0235788  73.7787447  12.3385863  73.0118621
  76.1884494  21.8445751  75.7441326  75.5146193  22.1477448  76.3526283
  76.5750316  22.6474832  75.3946783  75.4042951   9.3410883  85.2338995
  74.4865512   9.5625830  85.0760683  75.8203094   9.4157193  84.3750702
  76.1877999  10.7402298  80.3641675  76.9349818  11.2523696  80.0548797
  76.4569588  10.4186351  81.2246069  74.4604649  13.2360839  77.3468630
  73.5515868  12.9519872  77.4441099  74.4899733  13.6559918  76.4871936
  79.6923916  16.8467429  81.1159797  79.2386243  16.0058338  81.1724988
  79.0617883  17.4828827  81.4534577  78.6356836   7.7759415  82.3460465
  77.8979593   7.2636801  82.6770707  78.8883609   7.3359796  81.5343741
  78.1356855  18.6843925  82.0509615  78.4279830  19.2448982  81.3321981
  78.6455476  18.9772486  82.8062774  65.0292819  10.9566353  81.3283832
  64.8317219  10.3635714  80.6034898  64.4739483  10.6518563  82.0459771
  73.0089543  10.8489460  83.4478425  73.0638153   9.8963296  83.3720901
  72.1980745  11.0048899  83.9319723  74.1580737  14.7769583  74.6856708
  73.7200166  14.0605442  74.2262345  74.8991177  15.0045698  74.1241799
  70.9481903   9.4666519  81.2068804  70.1349768   9.7660690  81.6133996
  71.4440897   9.0722208  81.9243286  73.0990481  19.4624276  83.1403068
  73.0566659  19.6885123  82.2111600  74.0153179  19.2287651  83.2888870
  76.5456114   9.9308344  90.0383698  76.9005502  10.1579817  90.8978163
  77.1928246  10.2626721  89.4160953  82.2753851  13.0526780  80.7433027
  82.1371750  13.2428376  79.8154216  81.9190070  13.8146163  81.2001078
  70.4395977   7.0384875  86.8230039  71.0795357   6.8973634  86.1253002
  69.6073508   6.7519388  86.4468641  82.3023231  15.1203307  85.7544298
  82.7359738  15.0278596  86.6027352  83.0154812  15.0960807  85.1164314
  71.2156281  16.3387305  82.9365031  72.0096880  15.8437625  82.7347606
  70.5047974  15.8105168  82.5732737  76.0351126  18.7205401  87.2877399
  76.0888148  19.2896337  88.0555115  75.1665907  18.8907286  86.9231436
  67.5239045  10.4830387  79.0124784  66.5936633  10.4214843  79.2294746
  67.6196517   9.9606340  78.2161425  67.4424594   7.0085200  81.6003025
  67.7031411   7.9230533  81.4912186  68.2641766   6.5409642  81.7499638
  68.9149519   8.4222957  88.7701850  69.5872573   8.2140319  88.1214499
  68.0879306   8.2245043  88.3307082  83.1638780  15.1627007  88.2877184
  83.3574671  16.0672818  88.5336458  83.0639399  14.7034427  89.1215769
  74.8175091   5.0484898  90.7867511  74.1703006   5.7474848  90.6931987
  75.5876107   5.4821042  91.1543759  78.2253889  15.3133750  93.8618064
  78.0739396  15.0844302  92.9448148  78.2158569  16.2704352  93.8749409
  74.9939226  12.8865663  88.8464331  75.9231286  13.0376823  88.6733298
  74.5730256  12.9749684  87.9912977  73.7927557  16.9116327  86.6162868
  73.6538643  16.5435112  87.4888806  73.0042154  17.4263967  86.4446826
  74.3875709  22.0125424  77.9588405  74.5627465  21.5413467  78.7734027
  73.7008497  22.6391190  78.1869665  75.3432773  16.2897930  84.0051706
  75.0082605  16.2498700  84.9009356  74.8436718  15.6242646  83.5322116
  69.3177016  11.6965560  89.5304287  69.1796814  10.9645799  90.1315826
  70.2281940  11.6074460  89.2488475  78.2791964  13.6353964  74.2788766
  77.6621135  12.9100793  74.1821818  77.8108453  14.3963325  73.9355840
  71.9459317  11.4085519  89.0187967  72.6558936  10.7678712  88.9774585
  71.9028625  11.6598414  89.9414148  79.9346096  18.3452873  91.9394546
  79.8758642  17.6612093  91.2725129  80.3365614  19.0871863  91.4875172
  70.6588251   8.3950737  90.8383606  70.1225608   7.9441476  91.4905203
  70.0704960   8.5296646  90.0954071  68.9536795  25.1614787  84.7328265
  69.1933393  25.7933311  85.4107283  68.1105991  24.8102827  85.0193624
  70.0690510   7.8539389  73.4010070  69.1919976   7.7328189  73.0372317
  70.5448263   7.0625467  73.1488959  79.9363503  16.3092457  90.1708526
  79.0490282  15.9718378  90.2934925  80.5062054  15.5775488  90.4077291
  61.5892650  12.6416548  83.4951577  62.2763690  12.3278278  82.9072592
  61.4340779  13.5457913  83.2218829  66.3927372   7.5306745  87.9236601
  66.3085561   6.9232415  87.1887011  65.5710079   8.0215763  87.9246097
  73.4664656  20.9693909  87.1369769  73.3934828  21.7748881  87.6489073
  73.0242050  21.1685875  86.3117790  73.2554436  20.2065679  80.6472590
  72.4721958  20.7487359  80.7410815  73.9547181  20.7239659  81.0466832
  76.5651086   6.0160309  83.2906796  77.0619786   5.2630271  82.9707866
  75.7938068   6.0524625  82.7250005  84.4180844  11.7200674  84.9325087
  84.4070720  12.6025389  84.5619020  83.5498223  11.3672225  84.7379624
  75.9263340  20.8680743  89.2927928  76.6391312  21.5028208  89.2203829
  75.4353369  20.9644609  88.4767929  77.6480867  14.7731996  80.8645219
  76.7137146  14.8933458  80.6949924  77.8257535  13.8704463  80.6005229
  73.1486055   8.1577692  83.0178480  72.7783842   7.6048732  83.7059386
  73.6445147   7.5535825  82.4653480  81.0353418  10.6149315  81.3995253
  81.5013870  11.4477307  81.3255556  81.4860919  10.1494297  82.1040512
  70.9775254  18.6175187  90.1133498  71.6784713  19.2511669  90.2662893
  70.5070369  18.9589918  89.3529138  79.1029649  16.9593136  78.3981405
  79.3789493  16.8449731  79.3075279  78.2334148  16.5610621  78.3593579
  78.7776540  11.1719794  87.9386049  78.1247990  11.4195701  87.2838502
  79.1556919  10.3583932  87.6048526  75.7383713  21.2079487  82.0414219
  75.9206108  20.3901143  82.5041971  76.5616699  21.4247179  81.6039109
  76.0725879  20.1347672  79.3029268  76.6013645  19.6240127  78.6899430
  76.3354098  19.8190202  80.1674801  74.8264113  11.9139605  94.4252086
  74.1504750  11.8133734  95.0954461  75.6491746  11.7578819  94.8888083
  66.5742972  18.1511542  87.0464601  67.1596408  17.4055229  87.1792505
  66.3767810  18.4615498  87.9301265  69.4281627  21.1862789  82.0627043
  68.7592002  21.6708917  81.5791084  69.2894497  21.4332009  82.9770422
  61.1660626  10.7217142  85.7669044  61.2044726  10.1880732  86.5606162
  60.6600919  10.1952347  85.1480021  73.5686895  23.2206532  88.6609702
  74.1205203  23.3838154  89.4258787  73.9093089  23.8110970  87.9889727
  68.5451389   5.5681682  89.2631587  68.6092715   6.4296513  88.8508984
  68.4818509   4.9555684  88.5303945  68.0203661   7.6404815  92.9104621
  68.6475700   7.2581892  93.5242145  67.1631580   7.4219017  93.2760313
  78.4197770  18.0467790  94.5158356  78.9637674  18.6597748  94.0213311
  77.8384615  18.6047368  95.0325369  64.7969204   9.4481244  78.8422976
  65.0922645   8.5391922  78.7890029  63.8957240   9.4268983  78.5203978
  76.7055283  21.1688508  85.6473384  76.5806422  20.3678248  85.1384329
  77.3634374  21.6634701  85.1587354  68.3263451   7.5237240  84.8250524
  67.6050037   8.1373208  84.6857998  69.1156707   8.0595005  84.7467170
  78.7690191  18.9697528  87.2752934  77.8220527  18.8502879  87.2031261
  79.1172964  18.0820026  87.3579196  71.1289764   4.8591667  91.0991176
  71.6524166   5.1053964  91.8617485  70.9102098   5.6911702  90.6794313
  66.5257045   7.1295342  78.9662301  66.1969752   6.2492721  78.7837407
  66.8796416   7.0743010  79.8538690  75.7736624  18.7650244  83.4757286
  75.6261587  17.8366952  83.6564856  76.5990118  18.7870335  82.9914362
  69.6398869   7.4168311  79.3337778  69.9794941   7.9454233  78.6116387
  70.0870989   7.7548718  80.1096345  79.3770746  19.5878803  84.5622159
  80.3017294  19.3821664  84.4246610  79.2086050  19.3395204  85.4711501
  72.3342309   5.8005362  88.7840847  71.9939130   5.0013175  89.1861526
  71.6281316   6.1007073  88.2117680  71.6267016   5.9142933  77.5331071
  72.3475378   6.2924186  77.0294788  71.0032320   6.6331810  77.6366049
  75.7698139   6.6188082  78.4689404  75.9861753   7.5012720  78.1678232
  75.2892206   6.2274295  77.7395046  70.5097360   9.5773795  85.0460148
  70.3641941   9.8914098  85.9384430  70.0322564  10.1958696  84.4931047
  72.3693743   6.5676343  85.0941038  72.3555312   5.6717436  84.7573336
  73.0866171   6.5747007  85.7279324  74.2219874   7.0013683  87.1394165
  73.9637651   7.9230754  87.1378496  73.6904914   6.6044118  87.8294629
  79.1666062  20.1064470  79.9184251  79.3402940  19.5410893  79.1658103
  79.6594954  20.9065365  79.7363740  64.9843022  12.1179140  87.9847809
  64.4396490  12.8938948  88.1168084  65.8622372  12.4649944  87.8266931
  71.7730639   5.4490723  80.3628608  71.8946550   4.5207370  80.5619495
  71.4832681   5.4629409  79.4506923  85.0205454  12.8700893  81.5374550
  85.4636600  12.1208219  81.1393674  84.1431964  12.8611030  81.1548282
  80.1541235  19.4231235  77.0181149  80.8492140  20.0437928  77.2368463
  80.4964385  18.5726586  77.2933527  65.7709044  11.2449036  90.8777966
  65.0290780  11.3931671  91.4642597  65.4501788  11.5057301  90.0144716
  82.0532658  16.8730940  78.5468480  82.5783982  17.2118213  77.8217800
  81.9655011  15.9377956  78.3631614  73.7152707  20.7865014  90.6758356
  74.0239833  20.5414161  91.5481056  74.5128189  20.9911653  90.1877226
  73.7373319  22.9402924  82.9063733  73.2978309  22.4479302  83.5996589
  74.4881436  22.3975891  82.6655808  66.2165658  19.1314465  82.9088361
  67.0423678  18.8318236  82.5287004  65.8659710  18.3622087  83.3578149
  71.1847191  18.4840933  84.9786034  70.5627200  17.8211638  84.6788262
  71.8552058  18.5102065  84.2959682  64.4174263  17.0500791  83.8677294
  63.5806171  16.6222965  83.6861296  64.3897908  17.2433234  84.8048086
  71.2571718   6.9622721  94.5718540  71.3059874   7.8384844  94.1896310
  71.7994233   6.4200114  93.9990184  81.7426564  17.5063844  93.8519678
  80.9522108  17.4887983  93.3124177  81.5059919  18.0452138  94.6068714
  81.8624439  14.3556310  91.1652406  81.9122444  14.1906318  92.1067929
  81.7538362  13.4883569  90.7750287  70.7460698  17.0344856  78.4544495
  70.8948818  17.7180321  77.8011168  71.5527141  17.0149946  78.9693951
  79.1528202  10.3387238  92.4811713  80.0538064  10.1993703  92.1895711
  79.2276176  10.5041693  93.4209890  73.4871007   7.7154093  91.3264899
  72.6174316   8.0087659  91.0547488  73.7230487   8.2994538  92.0472163
  83.3642636  16.7753252  91.4094428  83.0727444  17.1383232  92.2457889
  82.7514767  16.0620260  91.2307760  84.5638318  14.3406132  83.9296998
  85.3985210  14.7795936  84.0934558  84.6997447  13.8644785  83.1105244
  81.6129824  11.8985867  89.8774486  82.0883946  12.0913513  89.0693337
  80.6895390  11.9545052  89.6317869  68.5013331  13.0610034  79.4605564
  68.2559373  12.1572364  79.6585774  68.6709245  13.0627184  78.5185042
  76.1910041   3.9333710  88.8430319  76.7091985   4.6694737  88.5176808
  75.8365173   4.2397703  89.6777079  67.7708978   8.7938391  76.9591725
  67.0778223   8.8682746  76.3031761  67.5260730   8.0298735  77.4813242
  74.2456103  19.5292987  75.9256242  73.6730070  20.1483174  75.4726714
  74.8188897  20.0792348  76.4596164  80.3131493   8.7751627  88.1102791
  81.2648916   8.8749724  88.1315015  80.1434944   7.9829895  88.6200876
  78.3345873   5.8607210  88.2962192  77.7395805   6.1412223  87.6008681
  78.0495569   6.3501111  89.0678933  77.4653363  19.8130137  77.0564825
  78.3984036  19.7475698  77.2597700  77.3776576  20.6486404  76.5979357
  80.0941380  19.1296007  74.0168772  80.0155011  18.7955871  74.9104530
  80.9151047  19.6217775  74.0160245  82.7919571  11.9957746  87.2245091
  82.7595891  11.0573747  87.4104775  83.4020195  12.0741783  86.4910916
  74.6302902  10.8653799  73.2672295  75.5762007  10.7360007  73.3360713
  74.2517147  10.1268461  73.7441723  82.9414059   8.7868790  87.2703374
  82.4253108   8.0027246  87.0833303  83.8254008   8.4587506  87.4349893
  88.6096121  13.0573753  86.3651128  89.3399509  12.7959041  86.9258831
  88.0003066  12.3202475  86.4053196  86.6911418  11.1981616  86.9625579
  85.9644582  11.0637581  86.3542070  86.2758705  11.5058444  87.7682297
  74.5141594  14.9171545  94.7272952  75.4344604  15.0950144  94.9212998
  74.4791177  13.9727591  94.5752651  72.8145819   8.7903776  73.2027180
  71.9077274   8.4936888  73.2789894  73.0921800   8.4933594  72.3361466
  63.7323759  10.1110139  83.6526226  63.4126544   9.2575447  83.3600600
  63.1857188  10.3258717  84.4084194  67.5103667  12.8272580  87.3695733
  67.7289677  13.7589688  87.3883767  67.9229441  12.4680555  88.1550537
  74.4307885   3.3340665  79.3571421  73.6208613   2.9887750  79.7326667
  75.1192302   3.0248209  79.9459033  72.3831532   8.4005786  96.7598482
  72.2828259   9.3500143  96.6910573  72.1653074   8.0724025  95.8874552
  71.5844604   5.6490711  73.3439159  72.4463768   5.9745609  73.6034977
  71.7694948   4.8622207  72.8312225  63.6012019  13.7313051  85.6219348
  62.9075491  13.3167003  85.1089302  64.3485010  13.7733587  85.0252767
  72.2462802  11.8302925  95.5763544  71.7629884  12.6303285  95.7827433
  72.3323741  11.8410870  94.6230988  65.5148762  13.6631304  83.4985363
  65.4919450  13.7618992  82.5467246  65.8249398  14.5096455  83.8202529
  68.1736140  15.7207459  87.6131977  69.1279393  15.6891402  87.5461909
  67.9748663  15.2598083  88.4282203  68.7635522  14.2908575  90.1802775
  69.5828411  14.7852654  90.2037612  69.0372330  13.3740544  90.1520343
  78.5202118   6.6819328  79.5430731  77.6327973   6.9668978  79.3250925
  78.9356107   6.5213091  78.6958007  81.8716654   6.7065849  83.2585070
  82.6477044   7.1962301  83.5309687  81.1464788   7.1323903  83.7156939
  84.3089213   7.4193468  84.3159010  84.9033704   7.1789204  83.6052319
  84.3815797   6.7000599  84.9432547  66.5286369  21.2627079  84.6302175
  66.3940837  20.5027480  84.0640173  66.1118431  21.9867979  84.1630964
  77.6645332  16.4464002  73.6378751  78.3681182  16.6514005  74.2536406
  76.9407980  17.0140764  73.9027834  78.4943142  12.1973864  79.7581021
  78.4378343  12.6542415  78.9188653  79.0471484  11.4364548  79.5803863
  82.3047948   7.9863596  80.5831140  82.0484882   7.5860231  81.4139348
  81.6800816   8.7007390  80.4581279  86.6160286  10.7259669  83.0902432
  86.0559844  10.7952858  83.8633994  86.0103789  10.5500653  82.3701928
  69.6855494  22.1596396  84.8420618  69.5687879  23.1041828  84.7399308
  68.8647941  21.8569957  85.2306417  79.5732029  16.8846532  75.6877211
  80.4077633  16.4527730  75.5054685  79.4116372  16.7128545  76.6154105
  79.2277921  13.3878645  77.0533550  79.1726725  13.2222916  76.1121994
  78.6023976  14.0954678  77.2095740  64.0170436   8.6246709  90.8794972
  64.6629300   8.1145663  91.3682197  63.8087587   9.3615391  91.4538397
  76.5423828  15.6927557  96.3787113  77.4114988  15.8668209  96.0173748
  76.0630580  16.5121974  96.2562842  72.5374047   2.8886754  76.6318868
  72.5252716   3.8328594  76.7887139  73.4297469   2.7056899  76.3378329
  70.7110009  22.8124658  88.0576546  71.6137255  22.8448268  88.3743041
  70.4847379  21.8825109  88.0722882  72.4663611  21.5655644  84.7186625
  71.5159242  21.5657506  84.6050997  72.7696097  20.8188379  84.2022660
  68.3567927   5.7714326  94.9769986  69.2199389   5.4151131  95.1873311
  67.7833338   5.4328221  95.6645391  88.2016304  27.4016183  85.7832387
  88.8394714  27.2822930  85.0795727  88.0837147  28.3497027  85.8420339
  85.0106010  27.3543611  85.7193912  84.6724522  27.2384676  84.8314447
  85.8795779  26.9534776  85.6994918  80.8692826  29.2079087  81.7090803
  80.3057691  29.1169024  80.9407091  80.7545221  28.3878992  82.1893296
  85.4925793  28.5078463  91.6780118  85.4814434  28.1131261  90.8060621
  85.6546433  27.7744535  92.2713889  78.4157258  30.7030279  84.5475023
  79.2078550  30.3621104  84.1321323  78.6553908  30.8125254  85.4677177
  80.3748012  29.9639192  77.4192402  81.1478888  29.4168179  77.2805278
  80.7273411  30.8283441  77.6306864  82.2133055  31.2915574  90.6259302
  81.9222920  32.1961205  90.5105968  82.8490039  31.3332102  91.3403371
  83.1389261  28.6692423  87.2160661  83.7352834  28.4448445  86.5017624
  83.1964233  27.9277168  87.8186109  82.7114290  26.1231858  75.0510852
  82.9639810  25.6013380  74.2894315  81.7738849  25.9598004  75.1537536
  87.7557573  25.1267637  82.8585595  88.5420662  24.7087060  82.5076012
  88.0196277  26.0313729  83.0267244  87.9267650  30.5640487  77.5574252
  87.2913483  30.6375113  78.2695157  87.5965056  31.1534086  76.8793331
  93.1566000  25.0642870  83.7618574  93.8891172  24.4942087  83.9956403
  92.4005355  24.6764470  84.2025079  82.4310579  28.0259964  77.2535227
  82.3146837  27.3504868  77.9216311  82.5412838  27.5392338  76.4367380
  84.7742119  27.4870111  80.9581916  84.4100327  26.9600732  81.6694838
  85.6309235  27.0968580  80.7848402  90.6791420  18.7764444  88.2213182
  90.3474745  19.6459855  87.9974397  90.0837033  18.4600728  88.9007213
  84.4147606  22.5160011  75.9543265  84.5822009  23.3840247  76.3213736
  84.2244775  22.6787293  75.0304554  87.1722940  30.9776990  87.6209095
  86.8723663  31.8802029  87.5124902  86.8273999  30.7109173  88.4730248
  80.6235421  27.4290787  83.6545800  79.6985918  27.2967001  83.8623491
  80.8719834  28.2085006  84.1515742  90.5720083  23.4959530  85.3006533
  89.6636961  23.4274939  85.0065294  90.5207679  23.9731475  86.1288358
  84.3936827  24.9717668  76.9389932  84.2736452  25.4174719  77.7775412
  83.6989416  25.3202986  76.3803470  77.9844232  27.0724060  84.4889589
  78.1136613  27.3258539  85.4029000  77.3041683  27.6651768  84.1694244
  84.6460949  24.9149176  93.2441430  83.8694283  25.4743096  93.2344294
  85.2851512  25.4005959  93.7656300  92.4381730  21.6975968  87.0784406
  91.7956110  21.9908502  86.4324201  91.9336658  21.5828889  87.8837603
  90.0921893  25.4439142  77.7670266  91.0039750  25.6766528  77.5917963
  89.5831541  26.0276186  77.2045344  82.9007321  27.7234629  92.8059397
  83.6422006  28.2619673  92.5294220  82.1944307  28.3500918  92.9630949
  88.3762661  29.8663770  91.4031558  88.7846017  29.4246180  90.6586191
  87.6539923  29.2916397  91.6565751  84.7293731  24.8036376  88.7765115
  85.5754926  25.2275790  88.9199764  84.6692369  24.1470001  89.4703678
  88.6991476  30.4264960  85.1583847  88.0700338  30.5910674  84.4559915
  88.3117138  30.8406570  85.9294811  92.5780708  31.3619398  82.5128211
  91.8931746  31.7418299  81.9625244  92.6624557  31.9714725  83.2460159
  87.8793176  22.4640745  90.4346289  87.6354108  23.2182805  89.8980565
  88.1553107  22.8426092  91.2693536  89.8331639  29.0079357  89.1123554
  90.0448534  29.6511117  88.4357936  89.7861388  28.1741674  88.6445485
  87.4357868  21.6197178  86.0160127  86.5742347  21.9178431  86.3076864
  87.4620303  21.8367577  85.0841159  84.2519438  30.1639368  82.4233932
  84.7157783  30.4427071  81.6338555  83.9876236  29.2622813  82.2407023
  81.1443519  29.7110850  85.3613696  81.7144876  30.1398118  84.7231180
  81.7351631  29.4293434  86.0597881  83.1888324  26.2862521  79.2323497
  83.8912367  26.7383564  79.6997424  82.8568952  25.6446339  79.8603391
  81.6368685  24.8774277  93.6074707  81.0067346  25.5590558  93.8410104
  81.5304773  24.7657359  92.6627845  76.9313658  24.5446073  84.5340631
  76.1412712  24.8003602  84.0580742  77.4224905  25.3594411  84.6392672
  90.9477467  31.8851312  87.2845912  91.7694911  31.4831500  87.0028593
  90.9439870  31.7819547  88.2362028  78.8828403  24.9090653  81.4924108
  78.0859566  25.0209347  82.0107603  78.6553995  25.2477305  80.6264998
  84.7134071  31.4335356  89.4406622  84.7778503  31.8955763  90.2764794
  84.0044995  30.8032721  89.5688932  75.2151361  24.7976564  86.9655622
  75.4659399  25.6823574  87.2313198  75.7510909  24.6181165  86.1930714
  99.0383460  28.2290061  83.6330883  98.2847169  27.6597459  83.4774888
  99.1731001  28.1952725  84.5801518  80.9149428  19.1795043  95.9699958
  80.5216374  18.6261242  96.6447602  81.7315568  19.4905622  96.3606475
  77.8811486  30.6178901  79.8813528  78.3936006  31.4122152  80.0319092
  78.5334199  29.9205192  79.8147129  83.8317389  20.5952922  93.5620214
  84.5727102  21.1960075  93.4824677  84.0635312  19.8530560  93.0038257
  78.9758727  25.7809289  91.8398444  78.8612242  24.8794547  92.1405543
  78.1203245  26.0272986  91.4883261  86.0550565  33.7227030  93.4385945
  85.6114419  32.9363408  93.1206849  86.7167778  33.9106180  92.7729836
  88.1531803  34.0029830  91.4667346  88.1350278  34.8238711  90.9747615
  89.0751723  33.8783905  91.6917487  84.6104857  31.5173959  92.3090854
  85.1433194  30.7562247  92.0790162  84.0818938  31.2247611  93.0515009
  87.7774552  16.6234025  87.8384496  87.4338821  17.5135667  87.7623607
  88.1453514  16.4335683  86.9754081  75.8460402  28.9467556  80.6573098
  76.6835624  29.3564564  80.4406806  76.0238670  28.0066998  80.6273292
  87.7424835  26.6142636  76.3456931  87.2271458  27.3847241  76.5845319
  87.4702143  25.9407772  76.9689993  85.3271946  21.4592337  81.4042170
  84.4713542  21.0699187  81.2247808  85.7398897  21.5384298  80.5441955
  86.8571092  18.9938680  85.8033729  86.3535888  18.9568815  84.9901535
  87.1501699  19.9031423  85.8630386  83.1013978  19.0777410  84.8099911
  83.9666975  18.8820219  84.4505801  83.1691487  18.8487762  85.7369268
  92.7159109  29.3674991  78.2810105  91.9388551  29.0286150  77.8365267
  93.3950590  29.3727614  77.6065070  87.5311138  24.4869728  78.1716712
  87.2261273  24.8015877  79.0226856  88.4841580  24.5651148  78.2144045
  85.9757570  30.6459952  79.8209666  85.4478931  29.9112711  79.5082904
  85.4745072  31.4234628  79.5749635  90.9550416  28.8408972  84.9376713
  90.2974090  29.5308233  85.0256841  91.7590815  29.2305404  85.2810699
  80.7076297  21.3079618  82.1816278  81.2820049  21.0854799  81.4489471
  81.2947280  21.3768312  82.9344879  89.7655874  27.1953345  82.9880654
  90.2787756  27.8283337  83.4902364  90.4157098  26.5954540  82.6224014
  81.0345884  23.3384079  76.2012163  80.1983197  23.6758765  76.5221438
  80.8950654  23.2033059  75.2639300  83.0098965  18.1820867  80.9091347
  82.3563377  17.8669884  80.2847962  82.9679439  17.5596607  81.6351170
  84.1210170  28.4640162  72.8244639  83.2137232  28.2329415  73.0235788
  84.6181202  27.6677781  73.0118621  86.2436705  24.6702800  85.2338995
  85.3259267  24.8917747  85.0760683  86.6596849  24.7449111  84.3750702
  87.0271753  26.0694216  80.3641675  87.7743572  26.5815613  80.0548797
  87.2963343  25.7478269  81.2246069  85.2998403  28.5652757  77.3468630
  84.3909622  28.2811790  77.4441099  85.3293487  28.9851835  76.4871936
  90.5317671  32.1759346  81.1159797  90.0779998  31.3350256  81.1724988
  89.9011637  32.8120745  81.4534577  89.4750590  23.1051332  82.3460465
  88.7373347  22.5928718  82.6770707  89.7277364  22.6651714  81.5343741
  88.9750610  34.0135843  82.0509615  89.2673584  34.5740900  81.3321981
  89.4849230  34.3064404  82.8062774  89.5762218  15.8827584  82.9402234
  89.8821094  15.0224948  82.6528149  90.3014822  16.4745204  82.7401228
  75.8686574  26.2858271  81.3283832  75.6710973  25.6927632  80.6034898
  75.3133238  25.9810481  82.0459771  83.8483297  26.1781377  83.4478425
  83.9031907  25.2255214  83.3720901  83.0374499  26.3340816  83.9319723
  84.9974491  30.1061500  74.6856708  84.5593921  29.3897359  74.2262345
  85.7384932  30.3337615  74.1241799  81.7875657  24.7958437  81.2068804
  80.9743523  25.0952608  81.6133996  82.2834651  24.4014126  81.9243286
  83.9384235  34.7916194  83.1403068  83.8960414  35.0177040  82.2111600
  84.8546934  34.5579569  83.2888870  87.3849869  25.2600262  90.0383698
  87.7399257  25.4871735  90.8978163  88.0322000  25.5918638  89.4160953
  93.1147606  28.3818697  80.7433027  92.9765504  28.5720293  79.8154216
  92.7583825  29.1438080  81.2001078  81.2789732  22.3676793  86.8230039
  81.9189111  22.2265552  86.1253002  80.4467262  22.0811306  86.4468641
  93.1416985  30.4495224  85.7544298  93.5753492  30.3570514  86.6027352
  93.8548566  30.4252725  85.1164314  82.0550036  31.6679223  82.9365031
  82.8490634  31.1729543  82.7347606  81.3441728  31.1397086  82.5732737
  86.8744880  34.0497319  87.2877399  86.9281903  34.6188255  88.0555115
  86.0059662  34.2199204  86.9231436  78.3632799  25.8122305  79.0124784
  77.4330387  25.7506760  79.2294746  78.4590271  25.2898258  78.2161425
  78.2818348  22.3377118  81.6003025  78.5425166  23.2522451  81.4912186
  79.1035521  21.8701560  81.7499638  79.7543274  23.7514875  88.7701850
  80.4266327  23.5432237  88.1214499  78.9273060  23.5536961  88.3307082
  94.0032535  30.4918925  88.2877184  94.1968425  31.3964736  88.5336458
  93.9033153  30.0326344  89.1215769  85.6568846  20.3776816  90.7867511
  85.0096761  21.0766765  90.6931987  86.4269861  20.8112960  91.1543759
  89.0647644  30.6425668  93.8618064  88.9133150  30.4136220  92.9448148
  89.0552323  31.5996269  93.8749409  85.8332980  28.2157581  88.8464331
  86.7625040  28.3668740  88.6733298  85.4124010  28.3041601  87.9912977
  84.6321312  32.2408245  86.6162868  84.4932398  31.8727029  87.4888806
  83.8435908  32.7555884  86.4446826  86.1826527  31.6189848  84.0051706
  85.8476360  31.5790618  84.9009356  85.6830473  30.9534564  83.5322116
  80.1570771  27.0257478  89.5304287  80.0190569  26.2937717  90.1315826
  81.0675694  26.9366378  89.2488475  89.1185719  28.9645882  74.2788766
  88.5014889  28.2392710  74.1821818  88.6502207  29.7255242  73.9355840
  82.7853072  26.7377437  89.0187967  83.4952690  26.0970629  88.9774585
  82.7422380  26.9890332  89.9414148  90.7739850  33.6744790  91.9394546
  90.7152396  32.9904011  91.2725129  91.1759369  34.4163780  91.4875172
  81.4982006  23.7242655  90.8383606  80.9619363  23.2733393  91.4905203
  80.9098714  23.8588564  90.0954071  80.9084265  23.1831306  73.4010070
  80.0313731  23.0620107  73.0372317  81.3842018  22.3917385  73.1488959
  90.7757258  31.6384374  90.1708526  89.8884036  31.3010296  90.2934925
  91.3455809  30.9067406  90.4077291  72.4286405  27.9708466  83.4951577
  73.1157445  27.6570196  82.9072592  72.2734533  28.8749831  83.2218829
  77.2321127  22.8598663  87.9236601  77.1479316  22.2524332  87.1887011
  76.4103833  23.3507681  87.9246097  87.4044841  21.3452226  83.2906796
  87.9013540  20.5922189  82.9707866  86.6331822  21.3816543  82.7250005
  95.2574598  27.0492592  84.9325087  95.2464474  27.9317307  84.5619020
  94.3891978  26.6964143  84.7379624  88.4874621  30.1023913  80.8645219
  87.5530900  30.2225376  80.6949924  88.6651290  29.1996380  80.6005229
  83.9879809  23.4869609  83.0178480  83.6177597  22.9340650  83.7059386
  84.4838902  22.8827743  82.4653480  91.8747173  25.9441233  81.3995253
  92.3407625  26.7769224  81.3255556  92.3254673  25.4786214  82.1040512
  81.8169008  33.9467104  90.1133498  82.5178468  34.5803587  90.2662893
  81.3464123  34.2881836  89.3529138  89.9423404  32.2885054  78.3981405
  90.2183248  32.1741649  79.3075279  89.0727903  31.8902539  78.3593579
  89.8463835  18.3121820  85.4386155  88.9326915  18.5426047  85.6068362
  90.2756937  18.3960264  86.2900187  89.6170294  26.5011712  87.9386049
  88.9641744  26.7487619  87.2838502  89.9950674  25.6875850  87.6048526
  86.5777468  36.5371405  82.0414219  86.7599862  35.7193061  82.5041971
  87.4010454  36.7539097  81.6039109  85.6657867  27.2431523  94.4252086
  84.9898504  27.1425652  95.0954461  86.4885501  27.0870736  94.8888083
  77.4136726  33.4803459  87.0464601  77.9990163  32.7347147  87.1792505
  77.2161565  33.7907416  87.9301265  72.0054381  26.0509059  85.7669044
  72.0438480  25.5172650  86.5606162  71.4994674  25.5244265  85.1480021
  79.3845143  20.8973600  89.2631587  79.4486470  21.7588431  88.8508984
  79.3212263  20.2847602  88.5303945  78.8597416  22.9696732  92.9104621
  79.4869454  22.5873810  93.5242145  78.0025335  22.7510934  93.2760313
  89.2591524  33.3759708  94.5158356  89.8031428  33.9889666  94.0213311
  88.6778369  33.9339286  95.0325369  75.6362958  24.7773162  78.8422976
  75.9316399  23.8683840  78.7890029  74.7350994  24.7560901  78.5203978
  87.5449037  36.4980426  85.6473384  87.4200177  35.6970166  85.1384329
  88.2028128  36.9926619  85.1587354  79.1657205  22.8529158  84.8250524
  78.4443791  23.4665126  84.6857998  79.9550461  23.3886923  84.7467170
  89.6083946  34.2989446  87.2752934  88.6614281  34.1794797  87.2031261
  89.9566719  33.4111944  87.3579196  81.9683519  20.1883585  91.0991176
  82.4917921  20.4345881  91.8617485  81.7495852  21.0203619  90.6794313
  77.3650800  22.4587259  78.9662301  77.0363506  21.5784638  78.7837407
  77.7190171  22.4034928  79.8538690  86.6130379  34.0942162  83.4757286
  86.4655341  33.1658869  83.6564856  87.4383872  34.1162253  82.9914362
  80.4792623  22.7460229  79.3337778  80.8188696  23.2746150  78.6116387
  80.9264744  23.0840635  80.1096345  83.1736064  21.1297280  88.7840847
  82.8332884  20.3305093  89.1861526  82.4675070  21.4298991  88.2117680
  83.8252536  18.2146592  87.2368170  84.6478605  17.7407070  87.1147060
  84.0690599  18.9937076  87.7366856  82.4660770  21.2434851  77.5331071
  83.1869133  21.6216103  77.0294788  81.8426074  21.9623727  77.6366049
  86.6091893  21.9480000  78.4689404  86.8255508  22.8304637  78.1678232
  86.1285960  21.5566213  77.7395046  81.3491115  24.9065713  85.0460148
  81.2035695  25.2206016  85.9384430  80.8716318  25.5250613  84.4931047
  83.2087497  21.8968261  85.0941038  83.1949066  21.0009354  84.7573336
  83.9259926  21.9038925  85.7279324  85.0613628  22.3305601  87.1394165
  84.8031406  23.2522672  87.1378496  84.5298669  21.9336036  87.8294629
  90.0059817  35.4356388  79.9184251  90.1796694  34.8702811  79.1658103
  90.4988708  36.2357283  79.7363740  75.8236777  27.4471057  87.9847809
  75.2790245  28.2230865  88.1168084  76.7016127  27.7941862  87.8266931
  82.6124393  20.7782641  80.3628608  82.7340305  19.8499287  80.5619495
  82.3226436  20.7921327  79.4506923  85.4815584  18.4637552  83.4995328
  85.5037281  18.5276885  82.5447307  85.8983643  17.6242060  83.6935834
  95.8599208  28.1992811  81.5374550  96.3030354  27.4500136  81.1393674
  94.9825718  28.1902947  81.1548282  90.9934989  34.7523153  77.0181149
  91.6885894  35.3729845  77.2368463  91.3358140  33.9018504  77.2933527
  76.6102799  26.5740954  90.8777966  75.8684535  26.7223589  91.4642597
  76.2895543  26.8349219  90.0144716  92.8926413  32.2022858  78.5468480
  93.4177737  32.5410131  77.8217800  92.8048765  31.2669873  78.3631614
  84.5767073  38.2694841  82.9063733  84.1372064  37.7771220  83.5996589
  85.3275190  37.7267809  82.6655808  75.2568017  32.3792709  83.8677294
  74.4199926  31.9514883  83.6861296  75.2291663  32.5725152  84.8048086
  82.0965473  22.2914638  94.5718540  82.1453628  23.1676761  94.1896310
  82.6387987  21.7492032  93.9990184  92.5820319  32.8355762  93.8519678
  91.7915862  32.8179901  93.3124177  92.3453673  33.3744055  94.6068714
  92.7018194  29.6848228  91.1652406  92.7516199  29.5198236  92.1067929
  92.5932117  28.8175487  90.7750287  81.5854452  32.3636774  78.4544495
  81.7342573  33.0472238  77.8011168  82.3920896  32.3441864  78.9693951
  89.9921956  25.6679156  92.4811713  90.8931819  25.5285621  92.1895711
  90.0669931  25.8333611  93.4209890  84.3264761  23.0446011  91.3264899
  83.4568071  23.3379577  91.0547488  84.5624242  23.6286456  92.0472163
  94.2036390  32.1045170  91.4094428  93.9121199  32.4675150  92.2457889
  93.5908522  31.3912178  91.2307760  95.4032073  29.6698049  83.9296998
  96.2378964  30.1087853  84.0934558  95.5391202  29.1936703  83.1105244
  92.4523579  27.2277784  89.8774486  92.9277700  27.4205431  89.0693337
  91.5289144  27.2836970  89.6317869  87.0303795  19.2625628  88.8430319
  87.5485739  19.9986655  88.5176808  86.6758928  19.5689621  89.6777079
  78.6102733  24.1230309  76.9591725  77.9171978  24.1974664  76.3031761
  78.3654485  23.3590653  77.4813242  87.2816389  15.6825910  84.3631216
  87.5618143  15.0149099  84.9891643  88.0666996  15.8755006  83.8505880
  91.1525248  24.1043544  88.1102791  92.1042671  24.2041642  88.1315015
  90.9828698  23.3121813  88.6200876  89.1739627  21.1899128  88.2962192
  88.5789559  21.4704140  87.6008681  88.8889324  21.6793028  89.0678933
  90.9335134  34.4587925  74.0168772  90.8548766  34.1247788  74.9104530
  91.7544801  34.9509693  74.0160245  93.6313325  27.3249664  87.2245091
  93.5989646  26.3865665  87.4104775  94.2413949  27.4033701  86.4910916
  85.4696656  26.1945717  73.2672295  86.4155761  26.0651925  73.3360713
  85.0910901  25.4560379  73.7441723  93.7807814  24.1160707  87.2703374
  93.2646863  23.3319164  87.0833303  94.6647762  23.7879424  87.4349893
  91.4418541  17.8601723  83.2299187  91.2443362  17.5516811  84.1142519
  92.0518246  18.5863362  83.3597117  99.4489875  28.3865671  86.3651128
 100.1793264  28.1250959  86.9258831  98.8396821  27.6494393  86.4053196
  97.5305172  26.5273533  86.9625579  96.8038336  26.3929498  86.3542070
  97.1152459  26.8350362  87.7682297  85.3535349  30.2463463  94.7272952
  86.2738358  30.4242062  94.9212998  85.3184932  29.3019508  94.5752651
  83.6539574  24.1195693  73.2027180  82.7471029  23.8228806  73.2789894
  83.9315555  23.8225511  72.3361466  74.5717514  25.4402057  83.6526226
  74.2520298  24.5867365  83.3600600  74.0250942  25.6550635  84.4084194
  78.3497421  28.1564498  87.3695733  78.5683431  29.0881606  87.3883767
  78.7623195  27.7972472  88.1550537  85.2701639  18.6632583  79.3571421
  84.4602368  18.3179668  79.7326667  85.9586056  18.3540127  79.9459033
  87.1992188  17.7410630  80.9795718  87.7523226  18.1606083  81.6385741
  87.4362274  16.8146378  81.0218674  83.2225287  23.7297704  96.7598482
  83.1222014  24.6792061  96.6910573  83.0046829  23.4015942  95.8874552
  82.4238358  20.9782629  73.3439159  83.2857522  21.3037527  73.6034977
  82.6088702  20.1914125  72.8312225  74.4405774  29.0604968  85.6219348
  73.7469245  28.6458921  85.1089302  75.1878765  29.1025505  85.0252767
  90.5770995  19.8511155  80.4874382  89.9969664  20.5095959  80.1052435
  90.3106927  19.0288500  80.0761800  89.0274561  19.2516213  82.6895703
  89.5274339  19.3632747  81.8810021  89.6710169  18.9477266  83.3296511
  83.0856557  27.1594842  95.5763544  82.6023639  27.9595203  95.7827433
  83.1717496  27.1702787  94.6230988  76.3542516  28.9923222  83.4985363
  76.3313205  29.0910909  82.5467246  76.6643153  29.8388373  83.8202529
  79.0129894  31.0499377  87.6131977  79.9673148  31.0183319  87.5461909
  78.8142418  30.5890001  88.4282203  79.6029276  29.6200493  90.1802775
  80.4222165  30.1144572  90.2037612  79.8766084  28.7032461  90.1520343
  89.3595873  22.0111245  79.5430731  88.4721728  22.2960896  79.3250925
  89.7749862  21.8505009  78.6958007  92.7110409  22.0357766  83.2585070
  93.4870799  22.5254219  83.5309687  91.9858543  22.4615821  83.7156939
  95.1482967  22.7485386  84.3159010  95.7427458  22.5081122  83.6052319
  95.2209551  22.0292516  84.9432547  88.5039086  31.7755920  73.6378751
  89.2074936  31.9805923  74.2536406  87.7801735  32.3432682  73.9027834
  89.3336896  27.5265781  79.7581021  89.2772098  27.9834333  78.9188653
  89.8865239  26.7656466  79.5803863  93.1441702  23.3155513  80.5831140
  92.8878637  22.9152149  81.4139348  92.5194570  24.0299307  80.4581279
  97.4554040  26.0551586  83.0902432  96.8953598  26.1244776  83.8633994
  96.8497543  25.8792571  82.3701928  90.4125783  32.2138449  75.6877211
  91.2471387  31.7819648  75.5054685  90.2510126  32.0420463  76.6154105
  90.0671676  28.7170563  77.0533550  90.0120479  28.5514834  76.1121994
  89.4417731  29.4246596  77.2095740  74.8564191  23.9538627  90.8794972
  75.5023054  23.4437581  91.3682197  74.6481342  24.6907309  91.4538397
  87.3817583  31.0219474  96.3787113  88.2508742  31.1960127  96.0173748
  86.9024334  31.8413891  96.2562842  83.3767801  18.2178672  76.6318868
  83.3646471  19.1620512  76.7887139  84.2691223  18.0348817  76.3378329
  87.1919921  14.8121448  80.8864805  86.4252316  14.2579935  81.0321487
  87.6030626  14.8843317  81.7478957  79.1961682  21.1006244  94.9769986
  80.0593143  20.7443049  95.1873311  78.6227092  20.7620139  95.6645391
  99.0410059  42.7308100  85.7832387  99.6788469  42.6114848  85.0795727
  98.9230901  43.6788944  85.8420339  95.8499765  42.6835529  85.7193912
  95.5118276  42.5676593  84.8314447  96.7189533  42.2826694  85.6994918
  96.3319548  43.8370380  91.6780118  96.3208189  43.4423179  90.8060621
  96.4940187  43.1036453  92.2713889  97.2886139  48.2041973  77.0205268
  96.6374119  48.7896053  76.6339282  98.0830502  48.7348168  77.0800305
  91.2141766  45.2931110  77.4192402  91.9872642  44.7460097  77.2805278
  91.5667165  46.1575359  77.6306864  93.0526809  46.6207492  90.6259302
  92.7616675  47.5253123  90.5105968  93.6883793  46.6624020  91.3403371
  93.9783016  43.9984341  87.2160661  94.5746588  43.7740363  86.5017624
  94.0357987  43.2569086  87.8186109  93.5508044  41.4523776  75.0510852
  93.8033565  40.9305297  74.2894315  92.6132603  41.2889921  75.1537536
  98.5951327  40.4559554  82.8585595  99.3814416  40.0378977  82.5076012
  98.8590031  41.3605646  83.0267244  98.7661404  45.8932405  77.5574252
  98.1307237  45.9667031  78.2695157  98.4358811  46.4826003  76.8793331
 103.9959754  40.3934787  83.7618574 104.7284926  39.8234004  83.9956403
 103.2399110  40.0056388  84.2025079  93.2704333  43.3551882  77.2535227
  93.1540591  42.6796785  77.9216311  93.3806593  42.8684256  76.4367380
  95.6135874  42.8162029  80.9581916  95.2494081  42.2892650  81.6694838
  96.4702990  42.4260498  80.7848402 101.5185175  34.1056362  88.2213182
 101.1868499  34.9751773  87.9974397 100.9230788  33.7892646  88.9007213
  95.2541361  37.8451929  75.9543265  95.4215763  38.7132165  76.3213736
  95.0638530  38.0079210  75.0304554  98.0116694  46.3068908  87.6209095
  97.7117417  47.2093946  87.5124902  97.6667754  46.0401091  88.4730248
  91.4629176  42.7582704  83.6545800  90.5379672  42.6258919  83.8623491
  91.7113589  43.5376924  84.1515742 101.4113838  38.8251448  85.3006533
 100.5030715  38.7566856  85.0065294 101.3601434  39.3023393  86.1288358
  95.2330582  40.3009586  76.9389932  95.1130207  40.7466637  77.7775412
  94.5383170  40.6494904  76.3803470  88.8237987  42.4015978  84.4889589
  88.9530368  42.6550457  85.4029000  88.1435438  42.9943686  84.1694244
  95.4854704  40.2441093  93.2441430  94.7088038  40.8035013  93.2344294
  96.1245267  40.7297876  93.7656300 103.2775484  37.0267886  87.0784406
 102.6349865  37.3200419  86.4324201 102.7730413  36.9120807  87.8837603
 100.9315648  40.7731059  77.7670266 101.8433504  41.0058446  77.5917963
 100.4225295  41.3568104  77.2045344  93.7401076  43.0526547  92.8059397
  94.4815760  43.5911591  92.5294220  93.0338061  43.6792835  92.9630949
  99.2156416  45.1955687  91.4031558  99.6239772  44.7538098  90.6586191
  98.4933677  44.6208315  91.6565751  95.5687486  40.1328294  88.7765115
  96.4148681  40.5567708  88.9199764  95.5086123  39.4761918  89.4703678
  99.5385230  45.7556878  85.1583847  98.9094093  45.9202592  84.4559915
  99.1510892  46.1698487  85.9294811 103.4174462  46.6911316  82.5128211
 102.7325500  47.0710217  81.9625244 103.5018311  47.3006642  83.2460159
  98.7186931  37.7932662  90.4346289  98.4747863  38.5474723  89.8980565
  98.9946861  38.1718010  91.2693536 100.6725394  44.3371275  89.1123554
 100.8842289  44.9803035  88.4357936 100.6255142  43.5033591  88.6445485
  98.2751623  36.9489095  86.0160127  97.4136102  37.2470349  86.3076864
  98.3014057  37.1659494  85.0841159  91.9837273  45.0402767  85.3613696
  92.5538630  45.4690036  84.7231180  92.5745385  44.7585352  86.0597881
  94.0282078  41.6154438  79.2323497  94.7306122  42.0675482  79.6997424
  93.6962707  40.9738257  79.8603391  92.4762440  40.2066195  93.6074707
  91.8461100  40.8882476  93.8410104  92.3698528  40.0949276  92.6627845
  87.7707412  39.8737991  84.5340631  86.9806466  40.1295519  84.0580742
  88.2618660  40.6886329  84.6392672 101.7871222  47.2143230  87.2845912
 102.6088665  46.8123417  87.0028593 101.7833625  47.1111464  88.2362028
  89.7222158  40.2382570  81.4924108  88.9253321  40.3501264  82.0107603
  89.4947750  40.5769222  80.6264998  95.5527825  46.7627273  89.4406622
  95.6172258  47.2247681  90.2764794  94.8438749  46.1324638  89.5688932
 109.8777215  43.5581979  83.6330883 109.1240923  42.9889377  83.4774888
 110.0124756  43.5244643  84.5801518  95.2675843  48.4295381  79.3085603
  95.1321518  49.2746917  79.7370450  95.8085655  48.6314659  78.5451536
  91.7543182  34.5086961  95.9699958  91.3610128  33.9553159  96.6447602
  92.5709323  34.8197539  96.3606475  94.6711143  35.9244840  93.5620214
  95.4120857  36.5251993  93.4824677  94.9029066  35.1822478  93.0038257
  96.8944319  49.0518947  93.4385945  96.4508173  48.2655326  93.1206849
  97.5561533  49.2398098  92.7729836  91.6531440  50.5814749  87.9646623
  92.2038865  50.4531812  87.1923617  90.8142916  50.8809638  87.6141516
  98.9925557  49.3321747  91.4667346  98.9744033  50.1530628  90.9747615
  99.9145477  49.2075823  91.6917487  95.4498611  46.8465877  92.3090854
  95.9826948  46.0854165  92.0790162  94.9212692  46.5539529  93.0515009
  98.6168306  31.9525943  87.8384496  98.2732576  32.8427584  87.7623607
  98.9847269  31.7627600  86.9754081  98.5818589  41.9434554  76.3456931
  98.0665213  42.7139159  76.5845319  98.3095898  41.2699690  76.9689993
  96.1665700  36.7884255  81.4042170  95.3107296  36.3991105  81.2247808
  96.5792652  36.8676215  80.5441955  97.6964847  34.3230598  85.8033729
  97.1929642  34.2860733  84.9901535  97.9895454  35.2323341  85.8630386
  93.9407733  34.4069328  84.8099911  94.8060729  34.2112136  84.4505801
  94.0085242  34.1779679  85.7369268 103.5552863  44.6966909  78.2810105
 102.7782306  44.3578068  77.8365267 104.2344344  44.7019532  77.6065070
  98.3704892  39.8161646  78.1716712  98.0655028  40.1307795  79.0226856
  99.3235334  39.8943066  78.2144045  96.8151324  45.9751869  79.8209666
  96.2872686  45.2404629  79.5082904  96.3138827  46.7526546  79.5749635
 101.7944170  44.1700890  84.9376713 101.1367845  44.8600151  85.0256841
 102.5984569  44.5597322  85.2810699  91.5470052  36.6371536  82.1816278
  92.1213804  36.4146717  81.4489471  92.1341034  36.7060230  82.9344879
 100.6049629  42.5245262  82.9880654 101.1181511  43.1575254  83.4902364
 101.2550853  41.9246458  82.6224014  91.8739639  38.6675997  76.2012163
  91.0376951  39.0050683  76.5221438  91.7344408  38.5324976  75.2639300
  93.8492719  33.5112784  80.9091347  93.1957132  33.1961802  80.2847962
  93.8073194  32.8888525  81.6351170  94.9603924  43.7932080  72.8244639
  94.0530986  43.5621333  73.0235788  95.4574956  42.9969699  73.0118621
  97.8672003  52.5029587  75.7441326  97.1933702  52.8061283  76.3526283
  98.2537825  53.3058667  75.3946783  97.0830460  39.9994718  85.2338995
  96.1653021  40.2209665  85.0760683  97.4990603  40.0741028  84.3750702
  97.8665508  41.3986134  80.3641675  98.6137326  41.9107531  80.0548797
  98.1357097  41.0770186  81.2246069  96.1392158  43.8944674  77.3468630
  95.2303377  43.6103707  77.4441099  96.1687242  44.3143753  76.4871936
 101.3711425  47.5051264  81.1159797 100.9173752  46.6642174  81.1724988
 100.7405392  48.1412662  81.4534577 100.3144345  38.4343250  82.3460465
  99.5767101  37.9220636  82.6770707 100.5671118  37.9943632  81.5343741
  99.8144364  49.3427761  82.0509615 100.1067339  49.9032818  81.3321981
 100.3242985  49.6356322  82.8062774 100.4155972  31.2119502  82.9402234
 100.7214849  30.3516865  82.6528149 101.1408577  31.8037122  82.7401228
  94.6877052  41.5073295  83.4478425  94.7425662  40.5547131  83.3720901
  93.8768254  41.6632734  83.9319723  95.8368246  45.4353418  74.6856708
  95.3987675  44.7189277  74.2262345  96.5778686  45.6629533  74.1241799
  92.6269412  40.1250355  81.2068804  91.8137277  40.4244525  81.6133996
  93.1228406  39.7306044  81.9243286  98.2243623  40.5892179  90.0383698
  98.5793011  40.8163652  90.8978163  98.8715755  40.9210556  89.4160953
 103.9541360  43.7110615  80.7433027 103.8159259  43.9012211  79.8154216
 103.5977579  44.4729998  81.2001078  92.1183486  37.6968710  86.8230039
  92.7582866  37.5557469  86.1253002  91.2861017  37.4103224  86.4468641
 103.9810740  45.7787142  85.7544298 104.4147247  45.6862431  86.6027352
 104.6942321  45.7544643  85.1164314  97.7138635  49.3789236  87.2877399
  97.7675657  49.9480173  88.0555115  96.8453416  49.5491121  86.9231436
  89.2026554  41.1414222  79.0124784  88.2724142  41.0798678  79.2294746
  89.2984026  40.6190175  78.2161425  89.1212103  37.6669035  81.6003025
  89.3818920  38.5814369  81.4912186  89.9429275  37.1993478  81.7499638
 104.8426289  45.8210843  88.2877184 105.0362180  46.7256653  88.5336458
 104.7426908  45.3618262  89.1215769  96.4962600  35.7068733  90.7867511
  95.8490515  36.4058683  90.6931987  97.2663616  36.1404877  91.1543759
  99.9041398  45.9717586  93.8618064  99.7526905  45.7428137  92.9448148
  99.8946078  46.9288187  93.8749409  96.6726735  43.5449498  88.8464331
  97.6018795  43.6960658  88.6733298  96.2517765  43.6333519  87.9912977
  95.4715066  47.5700163  86.6162868  95.3326152  47.2018947  87.4888806
  94.6829663  48.0847802  86.4446826  97.0220281  46.9481765  84.0051706
  96.6870114  46.9082535  84.9009356  96.5224227  46.2826481  83.5322116
  99.9579473  44.2937800  74.2788766  99.3408644  43.5684628  74.1821818
  99.4895962  45.0547160  73.9355840  93.6246826  42.0669355  89.0187967
  94.3346445  41.4262547  88.9774585  93.5816134  42.3182250  89.9414148
 101.6133605  49.0036708  91.9394546 101.5546151  48.3195928  91.2725129
 102.0153123  49.7455698  91.4875172  92.3375760  39.0534573  90.8383606
  91.8013117  38.6025311  91.4905203  91.7492469  39.1880481  90.0954071
  90.6324304  55.8198622  84.7328265  90.8720902  56.4517146  85.4107283
  89.7893500  55.4686662  85.0193624  91.7478019  38.5123224  73.4010070
  90.8707485  38.3912025  73.0372317  92.2235772  37.7209302  73.1488959
 101.6151012  46.9676292  90.1708526 100.7277791  46.6302214  90.2934925
 102.1849563  46.2359323  90.4077291  95.1452165  51.6277744  87.1369769
  95.0722337  52.4332716  87.6489073  94.7029559  51.8269710  86.3117790
  94.9341945  50.8649514  80.6472590  94.1509467  51.4071195  80.7410815
  95.6334690  51.3823494  81.0466832  98.2438595  36.6744144  83.2906796
  98.7407295  35.9214106  82.9707866  97.4725577  36.7108461  82.7250005
 106.0968353  42.3784509  84.9325087 106.0858229  43.2609225  84.5619020
 105.2285732  42.0256060  84.7379624  97.6050849  51.5264578  89.2927928
  98.3178821  52.1612043  89.2203829  97.1140878  51.6228444  88.4767929
  99.3268376  45.4315831  80.8645219  98.3924655  45.5517294  80.6949924
  99.5045044  44.5288298  80.6005229  94.8273564  38.8161527  83.0178480
  94.4571351  38.2632567  83.7059386  95.3232656  38.2119660  82.4653480
 102.7140927  41.2733150  81.3995253 103.1801379  42.1061142  81.3255556
 103.1648428  40.8078132  82.1040512  92.6562763  49.2759022  90.1133498
  93.3572222  49.9095505  90.2662893  92.1857878  49.6173753  89.3529138
 100.7817158  47.6176972  78.3981405 101.0577002  47.5033566  79.3075279
  99.9121657  47.2194457  78.3593579 100.6857590  33.6413737  85.4386155
  99.7720670  33.8717964  85.6068362 101.1150691  33.7252181  86.2900187
 100.4564048  41.8303629  87.9386049  99.8035499  42.0779537  87.2838502
 100.8344428  41.0167768  87.6048526  97.4171222  51.8663322  82.0414219
  97.5993617  51.0484978  82.5041971  98.2404208  52.0831015  81.6039109
  97.7513388  50.7931508  79.3029268  98.2801154  50.2823962  78.6899430
  98.0141607  50.4774038  80.1674801  96.5051621  42.5723440  94.4252086
  95.8292259  42.4717570  95.0954461  97.3279255  42.4162654  94.8888083
  95.2474404  53.8790368  88.6609702  95.7992712  54.0421989  89.4258787
  95.5880598  54.4694806  87.9889727  90.2238898  36.2265518  89.2631587
  90.2880224  37.0880349  88.8508984  90.1606018  35.6139519  88.5303945
  89.6991170  38.2988650  92.9104621  90.3263209  37.9165727  93.5242145
  88.8419089  38.0802852  93.2760313 100.0985279  48.7051625  94.5158356
 100.6425183  49.3181584  94.0213311  99.5172124  49.2631204  95.0325369
  98.3842792  51.8272343  85.6473384  98.2593931  51.0262083  85.1384329
  99.0421883  52.3218537  85.1587354  90.0050960  38.1821076  84.8250524
  89.2837546  38.7957044  84.6857998  90.7944216  38.7178841  84.7467170
 100.4477700  49.6281363  87.2752934  99.5008036  49.5086715  87.2031261
 100.7960473  48.7403861  87.3579196  92.8077273  35.5175502  91.0991176
  93.3311675  35.7637799  91.8617485  92.5889607  36.3495537  90.6794313
  88.2044554  37.7879177  78.9662301  87.8757261  36.9076556  78.7837407
  88.5583925  37.7326846  79.8538690  97.4524133  49.4234080  83.4757286
  97.3049096  48.4950787  83.6564856  98.2777627  49.4454170  82.9914362
  91.3186378  38.0752147  79.3337778  91.6582450  38.6038068  78.6116387
  91.7658498  38.4132553  80.1096345 101.0558255  50.2462638  84.5622159
 101.9804803  50.0405500  84.4246610 100.8873559  49.9979040  85.4711501
  94.0129818  36.4589197  88.7840847  93.6726639  35.6597011  89.1861526
  93.3068825  36.7590908  88.2117680  94.6646290  33.5438510  87.2368170
  95.4872360  33.0698988  87.1147060  94.9084354  34.3228994  87.7366856
  93.3054525  36.5726768  77.5331071  94.0262887  36.9508021  77.0294788
  92.6819829  37.2915645  77.6366049  97.4485648  37.2771917  78.4689404
  97.6649262  38.1596555  78.1678232  96.9679715  36.8858131  77.7395046
  92.1884869  40.2357631  85.0460148  92.0429450  40.5497934  85.9384430
  91.7110073  40.8542531  84.4931047  94.0481252  37.2260179  85.0941038
  94.0342821  36.3301272  84.7573336  94.7653680  37.2330842  85.7279324
  95.9007383  37.6597519  87.1394165  95.6425160  38.5814589  87.1378496
  95.3692423  37.2627953  87.8294629 100.8453571  50.7648306  79.9184251
 101.0190449  50.1994728  79.1658103 101.3382463  51.5649201  79.7363740
  93.4518148  36.1074559  80.3628608  93.5734059  35.1791205  80.5619495
  93.1620190  36.1213245  79.4506923  96.3209338  33.7929469  83.4995328
  96.3431035  33.8568802  82.5447307  96.7377397  32.9533978  83.6935834
 106.6992963  43.5284729  81.5374550 107.1424109  42.7792054  81.1393674
 105.8219473  43.5194865  81.1548282 101.8328744  50.0815070  77.0181149
 102.5279649  50.7021763  77.2368463 102.1751894  49.2310421  77.2933527
 103.7320167  47.5314776  78.5468480 104.2571491  47.8702049  77.8217800
 103.6442520  46.5961791  78.3631614  95.3940216  51.4448849  90.6758356
  95.7027342  51.1997996  91.5481056  96.1915698  51.6495488  90.1877226
  95.4160828  53.5986759  82.9063733  94.9765818  53.1063138  83.5996589
  96.1668945  53.0559727  82.6655808  92.9359227  37.6206556  94.5718540
  92.9847383  38.4968679  94.1896310  93.4781742  37.0783949  93.9990184
 103.4214073  48.1647679  93.8519678 102.6309617  48.1471818  93.3124177
 103.1847428  48.7035973  94.6068714 103.5411948  45.0140146  91.1652406
 103.5909953  44.8490153  92.1067929 103.4325871  44.1467405  90.7750287
 100.8315711  40.9971074  92.4811713 101.7325573  40.8577539  92.1895711
 100.9063685  41.1625529  93.4209890  95.1658516  38.3737929  91.3264899
  94.2961825  38.6671495  91.0547488  95.4017996  38.9578374  92.0472163
 105.0430145  47.4337087  91.4094428 104.7514953  47.7967068  92.2457889
 104.4302276  46.7204096  91.2307760 106.2425827  44.9989967  83.9296998
 107.0772719  45.4379771  84.0934558 106.3784956  44.5228620  83.1105244
 103.2917333  42.5569702  89.8774486 103.7671455  42.7497348  89.0693337
 102.3682899  42.6128888  89.6317869  90.1800840  43.7193869  79.4605564
  89.9346882  42.8156199  79.6585774  90.3496754  43.7211020  78.5185042
  97.8697550  34.5917545  88.8430319  98.3879494  35.3278572  88.5176808
  97.5152682  34.8981539  89.6777079  89.4496487  39.4522227  76.9591725
  88.7565732  39.5266582  76.3031761  89.2048239  38.6882570  77.4813242
  98.1210144  31.0117828  84.3631216  98.4011898  30.3441017  84.9891643
  98.9060751  31.2046924  83.8505880  95.9243612  50.1876822  75.9256242
  95.3517579  50.8067009  75.4726714  96.4976406  50.7376184  76.4596164
 101.9919002  39.4335462  88.1102791 102.9436425  39.5333560  88.1315015
 101.8222453  38.6413731  88.6200876 100.0133382  36.5191045  88.2962192
  99.4183314  36.7996058  87.6008681  99.7283078  37.0084946  89.0678933
  99.1440872  50.4713972  77.0564825 100.0771545  50.4059534  77.2597700
  99.0564085  51.3070239  76.5979357 101.7728889  49.7879842  74.0168772
 101.6942520  49.4539706  74.9104530 102.5938556  50.2801610  74.0160245
 104.4707080  42.6541582  87.2245091 104.4383400  41.7157582  87.4104775
 105.0807704  42.7325618  86.4910916  96.3090411  41.5237635  73.2672295
  97.2549516  41.3943843  73.3360713  95.9304656  40.7852297  73.7441723
 104.6201568  39.4452625  87.2703374 104.1040617  38.6611082  87.0833303
 105.5041517  39.1171342  87.4349893 102.2812295  33.1893641  83.2299187
 102.0837117  32.8808729  84.1142519 102.8912001  33.9155280  83.3597117
 110.2883630  43.7157589  86.3651128 111.0187018  43.4542877  86.9258831
 109.6790575  42.9786310  86.4053196 108.3698927  41.8565451  86.9625579
 107.6432091  41.7221416  86.3542070 107.9546214  42.1642280  87.7682297
  96.1929103  45.5755381  94.7272952  97.1132113  45.7533980  94.9212998
  96.1578686  44.6311426  94.5752651  94.4933328  39.4487611  73.2027180
  93.5864783  39.1520724  73.2789894  94.7709309  39.1517429  72.3361466
  96.1095394  33.9924501  79.3571421  95.2996122  33.6471586  79.7326667
  96.7979811  33.6832045  79.9459033  98.0385942  33.0702548  80.9795718
  98.5916981  33.4898001  81.6385741  98.2756028  32.1438296  81.0218674
  94.0619041  39.0589621  96.7598482  93.9615768  40.0083978  96.6910573
  93.8440583  38.7307860  95.8874552  93.2632113  36.3074546  73.3439159
  94.1251277  36.6329445  73.6034977  93.4482457  35.5206042  72.8312225
 101.4164749  35.1803073  80.4874382 100.8363418  35.8387877  80.1052435
 101.1500682  34.3580417  80.0761800  99.8668315  34.5808130  82.6895703
 100.3668094  34.6924665  81.8810021 100.5103923  34.2769183  83.3296511
  93.9250311  42.4886760  95.5763544  93.4417393  43.2887120  95.7827433
  94.0111250  42.4994705  94.6230988  89.8523649  46.3791295  87.6131977
  90.8066902  46.3475237  87.5461909  89.6536172  45.9181919  88.4282203
 100.1989627  37.3403163  79.5430731  99.3115482  37.6252814  79.3250925
 100.6143616  37.1796927  78.6958007 103.5504163  37.3649684  83.2585070
 104.3264553  37.8546137  83.5309687 102.8252297  37.7907738  83.7156939
 105.9876722  38.0777303  84.3159010 106.5821213  37.8373039  83.6052319
 106.0603306  37.3584434  84.9432547  99.3432841  47.1047838  73.6378751
 100.0468691  47.3097840  74.2536406  98.6195489  47.6724600  73.9027834
 100.1730651  42.8557699  79.7581021 100.1165852  43.3126250  78.9188653
 100.7258993  42.0948384  79.5803863 103.9835457  38.6447431  80.5831140
 103.7272391  38.2444067  81.4139348 103.3588325  39.3591225  80.4581279
 108.2947795  41.3843504  83.0902432 107.7347353  41.4536693  83.8633994
 107.6891298  41.2084489  82.3701928  91.3643003  52.8180231  84.8420618
  91.2475388  53.7625664  84.7399308  90.5435450  52.5153793  85.2306417
 101.2519538  47.5430367  75.6877211 102.0865142  47.1111565  75.5054685
 101.0903881  47.3712381  76.6154105 100.9065430  44.0462480  77.0533550
 100.8514234  43.8806752  76.1121994 100.2811485  44.7538513  77.2095740
  98.2211337  46.3511392  96.3787113  99.0902497  46.5252044  96.0173748
  97.7418089  47.1705809  96.2562842  94.2161556  33.5470589  76.6318868
  94.2040225  34.4912429  76.7887139  95.1084977  33.3640735  76.3378329
  92.3897518  53.4708493  88.0576546  93.2924764  53.5032103  88.3743041
  92.1634888  52.5408944  88.0722882  94.1451120  52.2239480  84.7186625
  93.1946751  52.2241341  84.6050997  94.4483606  51.4772214  84.2022660
  98.0313675  30.1413366  80.8864805  97.2646071  29.5871853  81.0321487
  98.4424380  30.2135235  81.7478957  90.0355436  36.4298162  94.9769986
  90.8986898  36.0734967  95.1873311  89.4620847  36.0912057  95.6645391
 109.8803813  58.0600018  85.7832387 110.5182223  57.9406765  85.0795727
 109.7624656  59.0080862  85.8420339 106.6893519  58.0127446  85.7193912
 106.3512031  57.8968511  84.8314447 107.5583288  57.6118611  85.6994918
 102.5480335  59.8662923  81.7090803 101.9845200  59.7752860  80.9407091
 102.4332730  59.0462827  82.1893296 107.1713302  59.1662298  91.6780118
 107.1601943  58.7715096  90.8060621 107.3333942  58.4328371  92.2713889
 100.0944767  61.3614114  84.5475023 100.8866059  61.0204939  84.1321323
 100.3341417  61.4709089  85.4677177 108.1279894  63.5333890  77.0205268
 107.4767874  64.1187971  76.6339282 108.9224257  64.0640085  77.0800305
 102.0535521  60.6223027  77.4192402 102.8266397  60.0752015  77.2805278
 102.4060920  61.4867277  77.6306864 103.8920563  61.9499410  90.6259302
 103.6010429  62.8545041  90.5105968 104.5277548  61.9915937  91.3403371
 104.8176770  59.3276258  87.2160661 105.4140343  59.1032281  86.5017624
 104.8751742  58.5861004  87.8186109 104.3901799  56.7815694  75.0510852
 104.6427319  56.2597215  74.2894315 103.4526358  56.6181839  75.1537536
 109.4345082  55.7851472  82.8585595 110.2208171  55.3670895  82.5076012
 109.6983786  56.6897564  83.0267244 109.6055159  61.2224322  77.5574252
 108.9700992  61.2958949  78.2695157 109.2752565  61.8117921  76.8793331
 114.8353509  55.7226705  83.7618574 115.5678681  55.1525922  83.9956403
 114.0792864  55.3348306  84.2025079 104.1098087  58.6843800  77.2535227
 103.9934346  58.0088703  77.9216311 104.2200347  58.1976173  76.4367380
 106.4529628  58.1453947  80.9581916 106.0887836  57.6184568  81.6694838
 107.3096744  57.7552416  80.7848402 112.3578929  49.4348279  88.2213182
 112.0262254  50.3043690  87.9974397 111.7624542  49.1184563  88.9007213
 106.0935115  53.1743846  75.9543265 106.2609518  54.0424083  76.3213736
 105.9032284  53.3371128  75.0304554 108.8510449  61.6360825  87.6209095
 108.5511172  62.5385864  87.5124902 108.5061508  61.3693008  88.4730248
 102.3022930  58.0874622  83.6545800 101.3773427  57.9550836  83.8623491
 102.5507343  58.8668841  84.1515742 112.2507592  54.1543365  85.3006533
 111.3424470  54.0858774  85.0065294 112.1995188  54.6315310  86.1288358
 106.0724336  55.6301504  76.9389932 105.9523961  56.0758555  77.7775412
 105.3776925  55.9786822  76.3803470  99.6631741  57.7307896  84.4889589
  99.7924122  57.9842375  85.4029000  98.9829192  58.3235604  84.1694244
 103.8331228  68.4005146  80.5880063 103.7555258  69.3512971  80.6668543
 103.2292872  68.0551018  81.2454989 106.3248458  55.5733011  93.2441430
 105.5481792  56.1326931  93.2344294 106.9639021  56.0589794  93.7656300
 114.1169239  52.3559804  87.0784406 113.4743619  52.6492337  86.4324201
 113.6124167  52.2412724  87.8837603 111.7709402  56.1022977  77.7670266
 112.6827259  56.3350364  77.5917963 111.2619049  56.6860021  77.2045344
 104.5794830  58.3818464  92.8059397 105.3209515  58.9203508  92.5294220
 103.8731816  59.0084753  92.9630949 110.0550170  60.5247605  91.4031558
 110.4633526  60.0830015  90.6586191 109.3327432  59.9500232  91.6565751
 106.4081240  55.4620212  88.7765115 107.2542435  55.8859625  88.9199764
 106.3479878  54.8053836  89.4703678 110.3778985  61.0848795  85.1583847
 109.7487847  61.2494510  84.4559915 109.9904647  61.4990405  85.9294811
 114.2568217  62.0203233  82.5128211 113.5719255  62.4002135  81.9625244
 114.3412066  62.6298560  83.2460159 109.5580685  53.1224580  90.4346289
 109.3141617  53.8766641  89.8980565 109.8340616  53.5009928  91.2693536
 111.5119148  59.6663192  89.1123554 111.7236043  60.3094952  88.4357936
 111.4648896  58.8325509  88.6445485 109.1145377  52.2781013  86.0160127
 108.2529856  52.5762267  86.3076864 109.1407812  52.4951412  85.0841159
 105.9306947  60.8223204  82.4233932 106.3945292  61.1010907  81.6338555
 105.6663745  59.9206648  82.2407023 102.8231028  60.3694685  85.3613696
 103.3932385  60.7981953  84.7231180 103.4139140  60.0877270  86.0597881
 104.8675833  56.9446356  79.2323497 105.5699876  57.3967400  79.6997424
 104.5356461  56.3030175  79.8603391 103.3156194  55.5358113  93.6074707
 102.6854855  56.2174393  93.8410104 103.2092282  55.4241194  92.6627845
  98.6101167  55.2029909  84.5340631  97.8200221  55.4587437  84.0580742
  99.1012414  56.0178246  84.6392672 112.6264976  62.5435148  87.2845912
 113.4482420  62.1415335  87.0028593 112.6227379  62.4403382  88.2362028
 100.5615912  55.5674488  81.4924108  99.7647075  55.6793182  82.0107603
 100.3341504  55.9061140  80.6264998 106.3921580  62.0919191  89.4406622
 106.4566012  62.5539598  90.2764794 105.6832504  61.4616556  89.5688932
  96.8938870  55.4560399  86.9655622  97.1446908  56.3407409  87.2313198
  97.4298418  55.2765001  86.1930714 106.1069597  63.7587299  79.3085603
 105.9715272  64.6038834  79.7370450 106.6479410  63.9606576  78.5451536
 102.5936937  49.8378878  95.9699958 102.2003882  49.2845077  96.6447602
 103.4103077  50.1489457  96.3606475  99.5598995  61.2762737  79.8813528
 100.0723515  62.0705987  80.0319092 100.2121708  60.5789027  79.8147129
 101.3693879  64.3928493  81.9636281 101.5460508  65.3146458  81.7757265
 102.1650713  64.0786912  82.3930661 105.5104898  51.2536758  93.5620214
 106.2514611  51.8543911  93.4824677 105.7422821  50.5114395  93.0038257
 100.6546236  56.4393125  91.8398444 100.5399751  55.5378382  92.1405543
  99.7990754  56.6856822  91.4883261 107.7338074  64.3810865  93.4385945
 107.2901928  63.5947244  93.1206849 108.3955287  64.5690016  92.7729836
 102.4925195  65.9106667  87.9646623 103.0432620  65.7823730  87.1923617
 101.6536671  66.2101556  87.6141516 109.8319312  64.6613665  91.4667346
 109.8137787  65.4822546  90.9747615 110.7539232  64.5367740  91.6917487
 106.2892366  62.1757794  92.3090854 106.8220703  61.4146083  92.0790162
 105.7606447  61.8831446  93.0515009 109.4562061  47.2817860  87.8384496
 109.1126330  48.1719502  87.7623607 109.8241023  47.0919518  86.9754081
  97.5247911  59.6051391  80.6573098  98.3623133  60.0148399  80.4406806
  97.7026179  58.6650833  80.6273292 109.4212344  57.2726472  76.3456931
 108.9058967  58.0431076  76.5845319 109.1489652  56.5991608  76.9689993
 107.0059455  52.1176172  81.4042170 106.1501051  51.7283023  81.2247808
 107.4186406  52.1968133  80.5441955 108.5358601  49.6522516  85.8033729
 108.0323397  49.6152651  84.9901535 108.8289208  50.5615258  85.8630386
 104.7801487  49.7361245  84.8099911 105.6454484  49.5404054  84.4505801
 104.8478996  49.5071597  85.7369268 114.3946618  60.0258826  78.2810105
 113.6176060  59.6869986  77.8365267 115.0738099  60.0311449  77.6065070
 109.2098647  55.1453564  78.1716712 108.9048782  55.4599713  79.0226856
 110.1629089  55.2234984  78.2144045 107.6545079  61.3043787  79.8209666
 107.1266440  60.5696547  79.5082904 107.1532581  62.0818463  79.5749635
 112.6337925  59.4992807  84.9376713 111.9761599  60.1892069  85.0256841
 113.4378324  59.8889239  85.2810699 102.3863806  51.9663453  82.1816278
 102.9607558  51.7438635  81.4489471 102.9734789  52.0352148  82.9344879
 111.4443383  57.8537180  82.9880654 111.9575265  58.4867172  83.4902364
 112.0944607  57.2538376  82.6224014 102.7133393  53.9967914  76.2012163
 101.8770706  54.3342601  76.5221438 102.5738163  53.8616894  75.2639300
 104.6886474  48.8404702  80.9091347 104.0350886  48.5253719  80.2847962
 104.6466948  48.2180443  81.6351170 105.7997679  59.1223997  72.8244639
 104.8924741  58.8913251  73.0235788 106.2968711  58.3261616  73.0118621
 108.7065758  67.8321504  75.7441326 108.0327456  68.1353201  76.3526283
 109.0931580  68.6350585  75.3946783 107.9224214  55.3286636  85.2338995
 107.0046776  55.5501583  85.0760683 108.3384358  55.4032946  84.3750702
 108.7059262  56.7278051  80.3641675 109.4531081  57.2399449  80.0548797
 108.9750852  56.4062104  81.2246069 106.9785912  59.2236592  77.3468630
 106.0697131  58.9395625  77.4441099 107.0080996  59.6435671  76.4871936
 112.2105180  62.8343182  81.1159797 111.7567507  61.9934091  81.1724988
 111.5799146  63.4704580  81.4534577 111.1538099  53.7635168  82.3460465
 110.4160856  53.2512554  82.6770707 111.4064873  53.3235549  81.5343741
 110.6538119  64.6719678  82.0509615 110.9461093  65.2324735  81.3321981
 111.1636739  64.9648239  82.8062774 111.2549727  46.5411420  82.9402234
 111.5608603  45.6808783  82.6528149 111.9802331  47.1329040  82.7401228
  97.5474083  56.9442106  81.3283832  97.3498482  56.3511467  80.6034898
  96.9920747  56.6394316  82.0459771 105.5270806  56.8365213  83.4478425
 105.5819416  55.8839049  83.3720901 104.7162008  56.9924652  83.9319723
 106.6762000  60.7645336  74.6856708 106.2381430  60.0481195  74.2262345
 107.4172441  60.9921451  74.1241799 103.4663166  55.4542272  81.2068804
 102.6531032  55.7536443  81.6133996 103.9622160  55.0597961  81.9243286
 105.6171744  65.4500029  83.1403068 105.5747923  65.6760876  82.2111600
 106.5334443  65.2163404  83.2888870 109.0637378  55.9184097  90.0383698
 109.4186766  56.1455570  90.8978163 109.7109509  56.2502474  89.4160953
 114.7935115  59.0402533  80.7433027 114.6553013  59.2304129  79.8154216
 114.4371334  59.8021916  81.2001078 102.9577241  53.0260628  86.8230039
 103.5976620  52.8849387  86.1253002 102.1254771  52.7395141  86.4468641
 114.8204494  61.1079060  85.7544298 115.2541001  61.0154349  86.6027352
 115.5336075  61.0836560  85.1164314 103.7337545  62.3263058  82.9365031
 104.5278143  61.8313379  82.7347606 103.0229237  61.7980922  82.5732737
 108.5532389  64.7081154  87.2877399 108.6069412  65.2772090  88.0555115
 107.6847171  64.8783039  86.9231436 100.0420308  56.4706140  79.0124784
  99.1117896  56.4090596  79.2294746 100.1377780  55.9482093  78.2161425
  99.9605857  52.9960953  81.6003025 100.2212675  53.9106286  81.4912186
 100.7823030  52.5285396  81.7499638 101.4330783  54.4098710  88.7701850
 102.1053836  54.2016072  88.1214499 100.6060569  54.2120796  88.3307082
 115.6820044  61.1502760  88.2877184 115.8755934  62.0548571  88.5336458
 115.5820662  60.6910180  89.1215769 107.3356355  51.0360651  90.7867511
 106.6884270  51.7350601  90.6931987 108.1057370  51.4696795  91.1543759
 110.7435153  61.3009503  93.8618064 110.5920659  61.0720055  92.9448148
 110.7339832  62.2580105  93.8749409 107.5120489  58.8741416  88.8464331
 108.4412549  59.0252576  88.6733298 107.0911519  58.9625437  87.9912977
 106.3108821  62.8992080  86.6162868 106.1719907  62.5310865  87.4888806
 105.5223417  63.4139720  86.4446826 106.9056973  68.0001177  77.9588405
 107.0808728  67.5289220  78.7734027 106.2189761  68.6266943  78.1869665
 107.8614036  62.2773683  84.0051706 107.5263869  62.2374453  84.9009356
 107.3617982  61.6118399  83.5322116 101.8358280  57.6841313  89.5304287
 101.6978078  56.9521552  90.1315826 102.7463203  57.5950213  89.2488475
 110.7973228  59.6229717  74.2788766 110.1802398  58.8976546  74.1821818
 110.3289716  60.3839078  73.9355840 104.4640581  57.3961272  89.0187967
 105.1740199  56.7554465  88.9774585 104.4209889  57.6474167  89.9414148
 112.4527359  64.3328626  91.9394546 112.3939905  63.6487846  91.2725129
 112.8546878  65.0747616  91.4875172 103.1769515  54.3826490  90.8383606
 102.6406872  53.9317229  91.4905203 102.5886223  54.5172399  90.0954071
 101.4718058  71.1490540  84.7328265 101.7114656  71.7809064  85.4107283
 100.6287255  70.7978580  85.0193624 102.5871774  53.8415142  73.4010070
 101.7101240  53.7203942  73.0372317 103.0629527  53.0501220  73.1488959
 112.4544767  62.2968210  90.1708526 111.5671545  61.9594131  90.2934925
 113.0243318  61.5651241  90.4077291  94.1073914  58.6292301  83.4951577
  94.7944954  58.3154031  82.9072592  93.9522042  59.5333666  83.2218829
  98.9108636  53.5182498  87.9236601  98.8266825  52.9108168  87.1887011
  98.0891342  54.0091516  87.9246097 105.9845920  66.9569662  87.1369769
 105.9116091  67.7624634  87.6489073 105.5423313  67.1561628  86.3117790
 105.7735700  66.1941432  80.6472590 104.9903221  66.7363112  80.7410815
 106.4728445  66.7115412  81.0466832 109.0832350  52.0036062  83.2906796
 109.5801049  51.2506024  82.9707866 108.3119331  52.0400378  82.7250005
 108.4444603  66.8556496  89.2927928 109.1572576  67.4903961  89.2203829
 107.9534632  66.9520362  88.4767929 110.1662130  60.7607749  80.8645219
 109.2318409  60.8809211  80.6949924 110.3438799  59.8580216  80.6005229
 105.6667318  54.1453445  83.0178480 105.2965106  53.5924485  83.7059386
 106.1626411  53.5411578  82.4653480 113.5534682  56.6025068  81.3995253
 114.0195134  57.4353060  81.3255556 114.0042182  56.1370050  82.1040512
 103.4956517  64.6050940  90.1133498 104.1965976  65.2387423  90.2662893
 103.0251632  64.9465671  89.3529138 111.6210913  62.9468889  78.3981405
 111.8970757  62.8325484  79.3075279 110.7515412  62.5486374  78.3593579
 111.5251344  48.9705655  85.4386155 110.6114424  49.2009882  85.6068362
 111.9544446  49.0544099  86.2900187 111.2957803  57.1595547  87.9386049
 110.6429253  57.4071454  87.2838502 111.6738183  56.3459685  87.6048526
 108.2564977  67.1955240  82.0414219 108.4387371  66.3776896  82.5041971
 109.0797963  67.4122932  81.6039109 108.5907142  66.1223425  79.3029268
 109.1194909  65.6115880  78.6899430 108.8535362  65.8065956  80.1674801
 107.3445376  57.9015358  94.4252086 106.6686013  57.8009487  95.0954461
 108.1673010  57.7454572  94.8888083  99.0924235  64.1387295  87.0464601
  99.6777672  63.3930982  87.1792505  98.8949074  64.4491251  87.9301265
 101.9462890  67.1738542  82.0627043 101.2773266  67.6584670  81.5791084
 101.8075760  67.4207762  82.9770422  93.6841890  56.7092895  85.7669044
  93.7225989  56.1756485  86.5606162  93.1782183  56.1828100  85.1480021
 106.0868159  69.2082286  88.6609702 106.6386467  69.3713907  89.4258787
 106.4274352  69.7986723  87.9889727 101.0632652  51.5557435  89.2631587
 101.1273979  52.4172266  88.8508984 100.9999772  50.9431437  88.5303945
 100.5384925  53.6280568  92.9104621 101.1656963  53.2457645  93.5242145
  99.6812843  53.4094770  93.2760313 110.9379033  64.0343543  94.5158356
 111.4818937  64.6473501  94.0213311 110.3565878  64.5923121  95.0325369
 109.2236546  67.1564261  85.6473384 109.0987686  66.3554001  85.1384329
 109.8815637  67.6510454  85.1587354 100.8444714  53.5112994  84.8250524
 100.1231300  54.1248961  84.6857998 101.6337970  54.0470758  84.7467170
 111.2871455  64.9573281  87.2752934 110.3401790  64.8378632  87.2031261
 111.6354228  64.0695779  87.3579196 103.6471028  50.8467420  91.0991176
 104.1705430  51.0929717  91.8617485 103.4283361  51.6787455  90.6794313
  99.0438309  53.1171095  78.9662301  98.7151015  52.2368474  78.7837407
  99.3977680  53.0618763  79.8538690 108.2917888  64.7525997  83.4757286
 108.1442850  63.8242705  83.6564856 109.1171381  64.7746088  82.9914362
 102.1580132  53.4044064  79.3337778 102.4976205  53.9329986  78.6116387
 102.6052253  53.7424471  80.1096345 111.8952010  65.5754556  84.5622159
 112.8198557  65.3697417  84.4246610 111.7267313  65.3270957  85.4711501
 104.8523573  51.7881115  88.7840847 104.5120393  50.9888928  89.1861526
 104.1462579  52.0882826  88.2117680 105.5040045  48.8730428  87.2368170
 106.3266114  48.3990906  87.1147060 105.7478108  49.6520911  87.7366856
 104.1448279  51.9018686  77.5331071 104.8656642  52.2799939  77.0294788
 103.5213583  52.6207563  77.6366049 108.2879402  52.6063835  78.4689404
 108.5043017  53.4888473  78.1678232 107.8073469  52.2150048  77.7395046
 103.0278624  55.5649548  85.0460148 102.8823204  55.8789851  85.9384430
 102.5503827  56.1834449  84.4931047 104.8875006  52.5552096  85.0941038
 104.8736575  51.6593189  84.7573336 105.6047435  52.5622760  85.7279324
 106.7401137  52.9889436  87.1394165 106.4818915  53.9106507  87.1378496
 106.2086177  52.5919871  87.8294629 111.6847326  66.0940224  79.9184251
 111.8584203  65.5286646  79.1658103 112.1776217  66.8941118  79.7363740
  97.5024286  58.1054893  87.9847809  96.9577754  58.8814701  88.1168084
  98.3803636  58.4525697  87.8266931 104.2911902  51.4366476  80.3628608
 104.4127814  50.5083123  80.5619495 104.0013945  51.4505162  79.4506923
 107.1603093  49.1221387  83.4995328 107.1824790  49.1860720  82.5447307
 107.5771152  48.2825896  83.6935834 112.6722498  65.4106988  77.0181149
 113.3673403  66.0313681  77.2368463 113.0145649  64.5602339  77.2933527
  98.2890308  57.2324789  90.8777966  97.5472044  57.3807424  91.4642597
  97.9683052  57.4933054  90.0144716 114.5713921  62.8606693  78.5468480
 115.0965246  63.1993966  77.8217800 114.4836274  61.9253709  78.3631614
 106.2333970  66.7740767  90.6758356 106.5421097  66.5289914  91.5481056
 107.0309452  66.9787406  90.1877226 106.2554582  68.9278677  82.9063733
 105.8159573  68.4355055  83.5996589 107.0062699  68.3851644  82.6655808
  98.7346921  65.1190218  82.9088361  99.5604941  64.8193989  82.5287004
  98.3840973  64.3497840  83.3578149 103.7028454  64.4716686  84.9786034
 103.0808464  63.8087391  84.6788262 104.3733321  64.4977818  84.2959682
  96.9355526  63.0376544  83.8677294  96.0987435  62.6098718  83.6861296
  96.9079172  63.2308987  84.8048086 103.7752982  52.9498474  94.5718540
 103.8241137  53.8260597  94.1896310 104.3175496  52.4075867  93.9990184
 114.2607828  63.4939597  93.8519678 113.4703371  63.4763736  93.3124177
 114.0241182  64.0327891  94.6068714 114.3805703  60.3432063  91.1652406
 114.4303708  60.1782071  92.1067929 114.2719626  59.4759322  90.7750287
 103.2641961  63.0220609  78.4544495 103.4130082  63.7056074  77.8011168
 104.0708405  63.0025699  78.9693951 111.6709465  56.3262991  92.4811713
 112.5719328  56.1869456  92.1895711 111.7457440  56.4917446  93.4209890
 106.0052270  53.7029846  91.3264899 105.1355580  53.9963412  91.0547488
 106.2411751  54.2870291  92.0472163 115.8823899  62.7629005  91.4094428
 115.5908708  63.1258986  92.2457889 115.2696031  62.0496013  91.2307760
 114.1311088  57.8861620  89.8774486 114.6065209  58.0789266  89.0693337
 113.2076653  57.9420805  89.6317869 101.0194594  59.0485787  79.4605564
 100.7740636  58.1448117  79.6585774 101.1890509  59.0502937  78.5185042
 108.7091304  49.9209463  88.8430319 109.2273248  50.6570490  88.5176808
 108.3546437  50.2273456  89.6777079 100.2890242  54.7814144  76.9591725
  99.5959487  54.8558499  76.3031761 100.0441994  54.0174488  77.4813242
 108.9603898  46.3409746  84.3631216 109.2405652  45.6732935  84.9891643
 109.7454505  46.5338841  83.8505880 106.7637367  65.5168740  75.9256242
 106.1911334  66.1358927  75.4726714 107.3370160  66.0668101  76.4596164
 112.8312757  54.7627380  88.1102791 113.7830180  54.8625477  88.1315015
 112.6616207  53.9705648  88.6200876 110.8527136  51.8482963  88.2962192
 110.2577068  52.1287976  87.6008681 110.5676833  52.3376864  89.0678933
 109.9834627  65.8005890  77.0564825 110.9165300  65.7351451  77.2597700
 109.8957839  66.6362157  76.5979357 112.6122643  65.1171760  74.0168772
 112.5336275  64.7831624  74.9104530 113.4332310  65.6093528  74.0160245
 107.1484165  56.8529552  73.2672295 108.0943270  56.7235760  73.3360713
 106.7698410  56.1144214  73.7441723 113.1206050  48.5185558  83.2299187
 112.9230871  48.2100647  84.1142519 113.7305755  49.2447197  83.3597117
 107.0322858  60.9047298  94.7272952 107.9525867  61.0825897  94.9212998
 106.9972441  59.9603344  94.5752651 105.3327082  54.7779529  73.2027180
 104.4258538  54.4812641  73.2789894 105.6103063  54.4809347  72.3361466
  96.2505023  56.0985892  83.6526226  95.9307807  55.2451200  83.3600600
  95.7038451  56.3134470  84.4084194 100.0284930  58.8148333  87.3695733
 100.2470940  59.7465441  87.3883767 100.4410704  58.4556308  88.1550537
 106.9489148  49.3216418  79.3571421 106.1389877  48.9763503  79.7326667
 107.6373565  49.0123962  79.9459033 108.8779696  48.3994465  80.9795718
 109.4310735  48.8189919  81.6385741 109.1149783  47.4730213  81.0218674
 104.9012796  54.3881539  96.7598482 104.8009523  55.3375896  96.6910573
 104.6834338  54.0599778  95.8874552 104.1025867  51.6366464  73.3439159
 104.9645031  51.9621362  73.6034977 104.2876211  50.8497960  72.8312225
  96.1193283  59.7188804  85.6219348  95.4256754  59.3042756  85.1089302
  96.8666274  59.7609340  85.0252767 112.2558504  50.5094990  80.4874382
 111.6757173  51.1679794  80.1052435 111.9894436  49.6872335  80.0761800
 110.7062070  49.9100048  82.6895703 111.2061848  50.0216583  81.8810021
 111.3497678  49.6061101  83.3296511 104.7644066  57.8178678  95.5763544
 104.2811147  58.6179038  95.7827433 104.8505005  57.8286623  94.6230988
  98.0330025  59.6507057  83.4985363  98.0100713  59.7494745  82.5467246
  98.3430662  60.4972208  83.8202529 100.6917403  61.7083212  87.6131977
 101.6460657  61.6767155  87.5461909 100.4929927  61.2473836  88.4282203
 101.2816785  60.2784328  90.1802775 102.1009674  60.7728407  90.2037612
 101.5553593  59.3616297  90.1520343 111.0383382  52.6695081  79.5430731
 110.1509237  52.9544731  79.3250925 111.4537371  52.5088844  78.6958007
 114.3897918  52.6941602  83.2585070 115.1658308  53.1838054  83.5309687
 113.6646052  53.1199656  83.7156939  99.0467632  67.2502832  84.6302175
  98.9122100  66.4903233  84.0640173  98.6299694  67.9743732  84.1630964
 110.1826595  62.4339755  73.6378751 110.8862445  62.6389758  74.2536406
 109.4589244  63.0016517  73.9027834 111.0124405  58.1849617  79.7581021
 110.9559607  58.6418168  78.9188653 111.5652748  57.4240301  79.5803863
 114.8229211  53.9739349  80.5831140 114.5666145  53.5735984  81.4139348
 114.1982079  54.6883143  80.4581279 102.2036758  68.1472149  84.8420618
 102.0869142  69.0917581  84.7399308 101.3829204  67.8445711  85.2306417
 112.0913292  62.8722285  75.6877211 112.9258896  62.4403483  75.5054685
 111.9297635  62.7004298  76.6154105 111.7459185  59.3754398  77.0533550
 111.6907988  59.2098669  76.1121994 111.1205240  60.0830431  77.2095740
  96.5351700  54.6122462  90.8794972  97.1810563  54.1021416  91.3682197
  96.3268851  55.3491144  91.4538397 109.0605092  61.6803310  96.3787113
 109.9296251  61.8543962  96.0173748 108.5811843  62.4997727  96.2562842
 105.0555310  48.8762507  76.6318868 105.0433980  49.8204347  76.7887139
 105.9478732  48.6932652  76.3378329 103.2291272  68.8000411  88.0576546
 104.1318519  68.8324021  88.3743041 103.0028642  67.8700862  88.0722882
 104.9844874  67.5531397  84.7186625 104.0340505  67.5533259  84.6050997
 105.2877360  66.8064132  84.2022660 108.8707430  45.4705284  80.8864805
 108.1039825  44.9163770  81.0321487 109.2818135  45.5427152  81.7478957
 100.8749191  51.7590079  94.9769986 101.7380652  51.4026884  95.1873311
 100.3014601  51.4203974  95.6645391 113.3874090  75.1954840  81.7090803
 112.8238955  75.1044777  80.9407091 113.2726485  74.3754745  82.1893296
 110.9338521  76.6906032  84.5475023 111.7259813  76.3496857  84.1321323
 111.1735172  76.8001007  85.4677177 112.8929275  75.9514945  77.4192402
 113.6660151  75.4043932  77.2805278 113.2454674  76.8159194  77.6306864
 114.7314318  77.2791327  90.6259302 114.4404184  78.1836958  90.5105968
 115.3671302  77.3207855  91.3403371 115.2295553  72.1107611  75.0510852
 115.4821074  71.5889133  74.2894315 114.2920112  71.9473757  75.1537536
 114.9491842  74.0135717  77.2535227 114.8328100  73.3380621  77.9216311
 115.0594102  73.5268091  76.4367380 113.1416685  73.4166540  83.6545800
 112.2167181  73.2842754  83.8623491 113.3901098  74.1960759  84.1515742
 110.5025496  73.0599813  84.4889589 110.6317877  73.3134292  85.4029000
 109.8222947  73.6527521  84.1694244 114.6724983  83.7297063  80.5880063
 114.5949013  84.6804888  80.6668543 114.0686626  83.3842936  81.2454989
 113.6624782  75.6986603  85.3613696 114.2326139  76.1273871  84.7231180
 114.2532894  75.4169187  86.0597881 114.1549949  70.8650030  93.6074707
 113.5248609  71.5466311  93.8410104 114.0486037  70.7533112  92.6627845
 109.4494921  70.5321826  84.5340631 108.6593975  70.7879355  84.0580742
 109.9406168  71.3470164  84.6392672 111.4009666  70.8966406  81.4924108
 110.6040830  71.0085100  82.0107603 111.1735259  71.2353058  80.6264998
 107.7332624  70.7852317  86.9655622 107.9840663  71.6699327  87.2313198
 108.2692172  70.6056918  86.1930714 113.4330691  65.1670796  95.9699958
 113.0397637  64.6136995  96.6447602 114.2496832  65.4781375  96.3606475
 110.3992749  76.6054654  79.8813528 110.9117270  77.3997905  80.0319092
 111.0515462  75.9080945  79.8147129 112.2087634  79.7220411  81.9636281
 112.3854262  80.6438375  81.7757265 113.0044467  79.4078830  82.3930661
 111.4939990  71.7685042  91.8398444 111.3793506  70.8670300  92.1405543
 110.6384508  72.0148739  91.4883261 113.3318949  81.2398584  87.9646623
 113.8826374  81.1115648  87.1923617 112.4930425  81.5393473  87.6141516
 108.3641666  74.9343309  80.6573098 109.2016888  75.3440317  80.4406806
 108.5419934  73.9942751  80.6273292 113.2257561  67.2955371  82.1816278
 113.8001313  67.0730552  81.4489471 113.8128543  67.3644065  82.9344879
 113.5527148  69.3259832  76.2012163 112.7164460  69.6634518  76.5221438
 113.4131917  69.1908812  75.2639300 115.5280228  64.1696620  80.9091347
 114.8744641  63.8545637  80.2847962 115.4860703  63.5472360  81.6351170
 108.3867837  72.2734024  81.3283832 108.1892237  71.6803385  80.6034898
 107.8314501  71.9686234  82.0459771 114.3056921  70.7834190  81.2068804
 113.4924786  71.0828361  81.6133996 114.8015915  70.3889879  81.9243286
 113.7970995  68.3552546  86.8230039 114.4370375  68.2141305  86.1253002
 112.9648526  68.0687059  86.4468641 114.5731299  77.6554976  82.9365031
 115.3671898  77.1605296  82.7347606 113.8622992  77.1272839  82.5732737
 110.8814063  71.7998058  79.0124784 109.9511651  71.7382513  79.2294746
 110.9771535  71.2774011  78.2161425 110.7999612  68.3252871  81.6003025
 111.0606429  69.2398204  81.4912186 111.6216784  67.8577313  81.7499638
 112.2724537  69.7390628  88.7701850 112.9447591  69.5307990  88.1214499
 111.4454324  69.5412714  88.3307082 112.6752034  73.0133231  89.5304287
 112.5371832  72.2813470  90.1315826 113.5856958  72.9242131  89.2488475
 114.0163269  69.7118408  90.8383606 113.4800626  69.2609146  91.4905203
 113.4279978  69.8464317  90.0954071 112.3111813  86.4782457  84.7328265
 112.5508411  87.1100981  85.4107283 111.4681009  86.1270497  85.0193624
 113.4265528  69.1707059  73.4010070 112.5494994  69.0495860  73.0372317
 113.9023281  68.3793138  73.1488959 104.9467668  73.9584219  83.4951577
 105.6338708  73.6445949  82.9072592 104.7915797  74.8625584  83.2218829
 109.7502390  68.8474416  87.9236601 109.6660579  68.2400085  87.1887011
 108.9285097  69.3383434  87.9246097 114.3350271  79.9342857  90.1133498
 115.0359731  80.5679340  90.2662893 113.8645386  80.2757589  89.3529138
 109.9317990  79.4679212  87.0464601 110.5171426  78.7222900  87.1792505
 109.7342828  79.7783169  87.9301265 112.7856645  82.5030460  82.0627043
 112.1167020  82.9876587  81.5791084 112.6469514  82.7499680  82.9770422
 104.5235644  72.0384812  85.7669044 104.5619744  71.5048403  86.5606162
 104.0175937  71.5120018  85.1480021 111.9026407  66.8849353  89.2631587
 111.9667733  67.7464184  88.8508984 111.8393527  66.2723355  88.5303945
 111.3778679  68.9572486  92.9104621 112.0050718  68.5749563  93.5242145
 110.5206598  68.7386687  93.2760313 108.1544222  70.7648915  78.8422976
 108.4497663  69.8559593  78.7890029 107.2532258  70.7436654  78.5203978
 111.6838469  68.8404911  84.8250524 110.9625055  69.4540879  84.6857998
 112.4731725  69.3762676  84.7467170 114.4864782  66.1759338  91.0991176
 115.0099184  66.4221634  91.8617485 114.2677116  67.0079373  90.6794313
 109.8832063  68.4463012  78.9662301 109.5544770  67.5660391  78.7837407
 110.2371434  68.3910681  79.8538690 112.9973887  68.7335982  79.3337778
 113.3369959  69.2621903  78.6116387 113.4446007  69.0716388  80.1096345
 115.6917327  67.1173033  88.7840847 115.3514148  66.3180846  89.1861526
 114.9856334  67.4174744  88.2117680 114.9842034  67.2310604  77.5331071
 115.7050396  67.6091856  77.0294788 114.3607338  67.9499480  77.6366049
 113.8672378  70.8941466  85.0460148 113.7216959  71.2081769  85.9384430
 113.3897582  71.5126366  84.4931047 108.3418040  73.4346810  87.9847809
 107.7971508  74.2106618  88.1168084 109.2197390  73.7817615  87.8266931
 115.1305657  66.7658394  80.3628608 115.2521568  65.8375040  80.5619495
 114.8407699  66.7797080  79.4506923 109.1284062  72.5616707  90.8777966
 108.3865798  72.7099342  91.4642597 108.8076806  72.8224972  90.0144716
 109.5740676  80.4482135  82.9088361 110.3998696  80.1485907  82.5287004
 109.2234728  79.6789758  83.3578149 114.5422209  79.8008603  84.9786034
 113.9202218  79.1379309  84.6788262 115.2127076  79.8269735  84.2959682
 107.7749281  78.3668462  83.8677294 106.9381189  77.9390636  83.6861296
 107.7472926  78.5600905  84.8048086 114.6146736  68.2790392  94.5718540
 114.6634892  69.1552514  94.1896310 115.1569251  67.7367785  93.9990184
 114.1035716  78.3512527  78.4544495 114.2523836  79.0347991  77.8011168
 114.9102159  78.3317617  78.9693951 111.8588349  74.3777704  79.4605564
 111.6134391  73.4740034  79.6585774 112.0284263  74.3794855  78.5185042
 111.1283996  70.1106062  76.9591725 110.4353241  70.1850417  76.3031761
 110.8835748  69.3466406  77.4813242 107.0898777  71.4277810  83.6526226
 106.7701562  70.5743118  83.3600600 106.5432206  71.6426388  84.4084194
 110.8678685  74.1440251  87.3695733 111.0864695  75.0757359  87.3883767
 111.2804459  73.7848225  88.1550537 115.7406550  69.7173457  96.7598482
 115.6403277  70.6667814  96.6910573 115.5228092  69.3891695  95.8874552
 114.9419622  66.9658382  73.3439159 115.8038786  67.2913280  73.6034977
 115.1269966  66.1789878  72.8312225 106.9587037  75.0480721  85.6219348
 106.2650509  74.6334674  85.1089302 107.7060028  75.0901258  85.0252767
 115.6037820  73.1470595  95.5763544 115.1204902  73.9470956  95.7827433
 115.6898759  73.1578540  94.6230988 108.8723780  74.9798975  83.4985363
 108.8494468  75.0786662  82.5467246 109.1824416  75.8264126  83.8202529
 111.5311158  77.0375130  87.6131977 112.4854411  77.0059072  87.5461909
 111.3323681  76.5765754  88.4282203 112.1210540  75.6076246  90.1802775
 112.9403429  76.1020325  90.2037612 112.3947348  74.6908214  90.1520343
 109.8861387  82.5794750  84.6302175 109.7515854  81.8195151  84.0640173
 109.4693449  83.3035649  84.1630964 113.0430512  83.4764067  84.8420618
 112.9262897  84.4209499  84.7399308 112.2222959  83.1737628  85.2306417
 107.3745454  69.9414380  90.8794972 108.0204318  69.4313334  91.3682197
 107.1662605  70.6783062  91.4538397 114.0685027  84.1292329  88.0576546
 114.9712273  84.1615939  88.3743041 113.8422397  83.1992779  88.0722882
 111.7142945  67.0881997  94.9769986 112.5774407  66.7318802  95.1873311
 111.1408356  66.7495892  95.6645391 115.3629399  87.3676730  85.7669044
 115.4013498  86.8340321  86.5606162 114.8569692  86.8411936  85.1480021
  68.9536796   2.1676909  71.4573572  69.1933394   2.7995433  72.1352590
  68.1105992   1.8164949  71.7438931  80.8692827   6.2141210  68.4336110
  80.3057692   6.1231147  67.6652397  80.7545222   5.3941114  68.9138602
  78.4157259   7.7092401  71.2720330  79.2078551   7.3683226  70.8566629
  78.6553909   7.8187377  72.1922483  86.4492386   9.8812178  63.7450575
  85.7980366  10.4666258  63.3584588  87.2436749  10.4118372  63.8045612
  80.3748013   6.9701315  64.1437709  81.1478889   6.4230302  64.0050585
  80.7273412   7.8345564  64.3552170  82.2133056   8.2977697  77.3504608
  81.9222922   9.2023328  77.2351274  82.8490040   8.3394225  78.0648678
  87.9267651   7.5702610  64.2819559  87.2913484   7.6437236  64.9940463
  87.5965058   8.1596208  63.6038638  87.1722941   7.9839113  74.3454402
  86.8723664   8.8864151  74.2370209  86.8274000   7.7171296  75.1975555
  77.9844233   4.0786183  71.2134895  78.1136615   4.3320662  72.1274307
  77.3041685   4.6713891  70.8939550  82.1543721  14.7483433  67.3125370
  82.0767750  15.6991258  67.3913850  81.5505364  14.4029305  67.9700296
  84.2519439   7.1701491  69.1479239  84.7157784   7.4489194  68.3583861
  83.9876237   6.2684935  68.9652330  81.1443520   6.7172972  72.0859002
  81.7144877   7.1460241  71.4476487  81.7351632   6.4355557  72.7843188
  84.7134072   8.4397478  76.1651929  84.7778504   8.9017886  77.0010101
  84.0044996   7.8094843  76.2934239  84.4282090  10.1065586  66.0330909
  84.2927764  10.9517122  66.4615757  84.9691902  10.3084863  65.2696843
  77.8811487   7.6241024  66.6058834  78.3936008   8.4184274  66.7564399
  78.5334200   6.9267314  66.5392436  79.6906372  10.7406780  68.6881588
  79.8673000  11.6624745  68.5002571  80.4863205  10.4265199  69.1175967
  86.0550566  10.7289152  80.1631251  85.6114420   9.9425531  79.8452156
  86.7167780  10.9168303  79.4975142  80.8137687  12.2584954  74.6891930
  81.3645112  12.1302017  73.9168924  79.9749163  12.5579843  74.3386823
  88.1531804  11.0091952  78.1912653  88.1350279  11.8300833  77.6992922
  89.0751724  10.8846027  78.4162794  84.6104858   8.5236082  79.0336161
  85.1433195   7.7624370  78.8035469  84.0818939   8.2309734  79.7760315
  75.8460404   5.9529678  67.3818405  76.6835626   6.3626687  67.1652113
  76.0238671   5.0129120  67.3518599  85.9757571   7.6522074  66.5454973
  85.4478932   6.9174834  66.2328210  85.4745074   8.4296751  66.2994941
  87.0278250  14.1799792  62.4686632  86.3539949  14.4831488  63.0771590
  87.4144072  14.9828872  62.1192089  90.5317672   9.1821469  67.8405104
  90.0779999   8.3412379  67.8970294  89.9011639   9.8182867  68.1779884
  88.9750611  11.0197966  68.7754922  89.2673586  11.5803023  68.0567287
  89.4849232  11.3126527  69.5308081  84.9974492   7.1123623  61.4102015
  84.5593922   6.3959482  60.9507652  85.7384933   7.3399738  60.8487106
  83.9384236  11.7978317  69.8648375  83.8960415  12.0239163  68.9356907
  84.8546935  11.5641691  70.0134176  82.0550037   8.6741346  69.6610338
  82.8490636   8.1791666  69.4592913  81.3441729   8.1459209  69.2978043
  86.8744882  11.0559441  74.0122705  86.9281904  11.6250377  74.7800421
  86.0059663  11.2261326  73.6476743  84.6321313   9.2470368  73.3408175
  84.4932399   8.8789152  74.2134113  83.8435909   9.7618007  73.1692133
  85.2269465  14.3479464  64.6833711  85.4021221  13.8767507  65.4979334
  84.5402253  14.9745230  64.9114972  86.1826528   8.6251970  70.7297013
  85.8476361   8.5852740  71.6254663  85.6830474   7.9596686  70.2567423
  90.7739852  10.6806913  78.6639853  90.7152398   9.9966133  77.9970436
  91.1759370  11.4225903  78.2120479  79.7930550  17.4968827  71.4573572
  80.0327149  18.1287351  72.1352590  78.9499747  17.1456867  71.7438931
  72.4286406   4.9770589  70.2196884  73.1157446   4.6632319  69.6317899
  72.2734535   5.8811953  69.9464135  84.3058412  13.3047949  73.8615076
  84.2328584  14.1102921  74.3734380  83.8635805  13.5039915  73.0363097
  84.0948192  12.5419719  67.3717897  83.3115714  13.0841400  67.4656122
  84.7940937  13.0593699  67.7712138  86.7657096  13.2034783  76.0173234
  87.4785068  13.8382248  75.9449136  86.2747124  13.2998649  75.2013236
  81.8169009  10.9529227  76.8378805  82.5178469  11.5865710  76.9908199
  81.3464124  11.2943958  76.0774444  89.9423405   9.2947177  65.1226712
  90.2183249   9.1803771  66.0320586  89.0727904   8.8964661  65.0838885
  86.5777469  13.5433527  68.7659526  86.7599864  12.7255183  69.2287278
  87.4010455  13.7601220  68.3284416  86.9119635  12.4701713  66.0274574
  87.4407401  11.9594167  65.4144736  87.1747854  12.1544243  66.8920107
  77.4136727  10.4865582  73.7709908  77.9990164   9.7409270  73.9037812
  77.2161566  10.7969539  74.6546572  80.2675383  13.5216829  68.7872350
  79.5985758  14.0062957  68.3036390  80.1288252  13.7686050  69.7015729
  72.0054382   3.0571182  72.4914351  72.0438482   2.5234773  73.2851469
  71.4994675   2.5306388  71.8725328  84.4080651  15.5560573  75.3855008
  84.9598959  15.7192194  76.1504094  84.7486845  16.1465011  74.7135033
  89.2591525  10.3821830  81.2403663  89.8031429  10.9951789  80.7458618
  88.6778370  10.9401409  81.7570676  87.5449038  13.5042548  72.3718691
  87.4200178  12.7032288  71.8629636  88.2028130  13.9988742  71.8832661
  89.6083947  11.3051568  73.9998241  88.6614282  11.1856920  73.9276567
  89.9566720  10.4174066  74.0824502  86.6130380  11.1004285  70.2002593
  86.4655343  10.1720992  70.3810163  87.4383874  11.1224375  69.7159668
  90.2164502  11.9232843  71.2867466  91.1411049  11.7175705  71.1491917
  90.0479805  11.6749244  72.1956807  90.0059818  12.4418511  66.6429557
  90.1796696  11.8764933  65.8903410  90.4988709  13.2419406  66.4609047
  75.8236778   4.4533180  74.7093116  75.2790246   5.2292988  74.8413390
  76.7016128   4.8003984  74.5512237  90.9934991  11.7585275  63.7426455
  91.6885895  12.3791968  63.9613770  91.3358141  10.9080626  64.0178833
  76.6102800   3.5803076  77.6023273  75.8684536   3.7285711  78.1887903
  76.2895544   3.8411342  76.7390022  84.5546462  13.1219054  77.4003663
  84.8633589  12.8768201  78.2726362  85.3521944  13.3265693  76.9122533
  84.5767075  15.2756964  69.6309039  84.1372065  14.7833343  70.3241896
  85.3275191  14.7329932  69.3901115  77.0559413  11.4668505  69.6333667
  77.8817433  11.1672277  69.2532311  76.7053465  10.6976127  70.0823456
  82.0240947  10.8194973  71.7031341  81.4020956  10.1565678  71.4033569
  82.6945814  10.8456105  71.0204989  75.2568019   9.3854831  70.5922601
  74.4199927   8.9577006  70.4106602  75.2291664   9.5787275  71.5293392
  92.5820320   9.8417884  80.5764984  91.7915864   9.8242023  80.0369484
  92.3453674  10.3806178  81.3314021  81.5854454   9.3698896  65.1789802
  81.7342574  10.0534361  64.5256474  82.3920897   9.3503986  65.6939257
  79.3407087   5.3964074  66.1850870  79.0953128   4.4926404  66.3831081
  79.5103001   5.3981224  65.2430348  85.0849859  11.8647027  62.6501549
  84.5123826  12.4837214  62.1972021  85.6582653  12.4146389  63.1841471
  88.3047119  12.1484177  63.7810131  89.2377792  12.0829739  63.9843007
  88.2170332  12.9840444  63.3224664  90.9335136  11.4650047  60.7414079
  90.8548767  11.1309911  61.6349837  91.7544802  11.9571815  60.7405551
  78.3497423   5.1626620  74.0941040  78.5683432   6.0943728  74.1129073
  78.7623197   4.8034595  74.8795843  74.4405775   6.0667091  72.3464655
  73.7469247   5.6521044  71.8334609  75.1878766   6.1087627  71.7498074
  76.3542518   5.9985345  70.2230670  76.3313206   6.0973032  69.2712553
  76.6643154   6.8450495  70.5447836  79.0129896   8.0561500  74.3377284
  79.9673149   8.0245442  74.2707216  78.8142419   7.5952123  75.1527510
  79.6029278   6.6262616  76.9048082  80.4222167   7.1206694  76.9282919
  79.8766085   5.7094584  76.8765649  77.3680124  13.5981119  71.3547482
  77.2334592  12.8381520  70.7885480  76.9512187  14.3222019  70.8876271
  88.5039087   8.7818043  60.3624057  89.2074937   8.9868045  60.9781713
  87.7801736   9.3494805  60.6273141  80.5249250  14.4950436  71.5665925
  80.4081634  15.4395869  71.4644615  79.7041696  14.1923998  71.9551724
  90.4125785   9.2200572  62.4122517  91.2471389   8.7881770  62.2299992
  90.2510128   9.0482586  63.3399412  87.3817584   8.0281597  83.1032419
  88.2508744   8.2022249  82.7419054  86.9024336   8.8476014  82.9808149
  81.5503764  15.1478698  74.7821853  82.4531011  15.1802308  75.0988348
  81.3241134  14.2179149  74.7968189  83.3057366  13.9009685  71.4431932
  82.3552997  13.9011546  71.3296304  83.6089852  13.1542419  70.9267966
  99.0410060  19.7370223  72.5077694  99.6788470  19.6176970  71.8041034
  98.9230903  20.6851067  72.5665646  95.8499766  19.6897651  72.4439219
  95.5118278  19.5738716  71.5559754  96.7189534  19.2888816  72.4240225
  91.7086582  21.5433128  68.4336110  91.1451447  21.4523064  67.6652397
  91.5938977  20.7233032  68.9138602  96.3319549  20.8432503  78.4025424
  96.3208190  20.4485301  77.5305928  96.4940189  20.1098575  78.9959196
  89.2551014  23.0384319  71.2720330  90.0472306  22.6975144  70.8566629
  89.4947664  23.1479294  72.1922483  97.2886141  25.2104095  63.7450575
  96.6374120  25.7958176  63.3584588  98.0830503  25.7410290  63.8045612
  91.2141768  22.2993232  64.1437709  91.9872644  21.7522219  64.0050585
  91.5667167  23.1637482  64.3552170  93.0526810  23.6269615  77.3504608
  92.7616676  24.5315246  77.2351274  93.6883795  23.6686142  78.0648678
  93.9783017  21.0046463  73.9405968  94.5746589  20.7802486  73.2262931
  94.0357989  20.2631209  74.5431416  93.5508046  18.4585899  61.7756159
  93.8033566  17.9367420  61.0139622  92.6132605  18.2952044  61.8782842
  98.5951328  17.4621677  69.5830902  99.3814418  17.0441100  69.2321319
  98.8590033  18.3667769  69.7512550  98.7661406  22.8994527  64.2819559
  98.1307239  22.9729154  64.9940463  98.4358812  23.4888126  63.6038638
 103.9959755  17.3996910  70.4863881 104.7284927  16.8296127  70.7201710
 103.2399111  17.0118511  70.9270386  93.2704334  20.3614004  63.9780534
  93.1540592  19.6858908  64.6461618  93.3806594  19.8746378  63.1612687
  95.6135875  19.8224152  67.6827223  95.2494082  19.2954773  68.3940144
  96.4702991  19.4322621  67.5093708  95.2541362  14.8514051  62.6788572
  95.4215765  15.7194288  63.0459043  95.0638531  15.0141333  61.7549861
  98.0116695  23.3131030  74.3454402  97.7117418  24.2156069  74.2370209
  97.6667755  23.0463213  75.1975555  91.4629177  19.7644827  70.3791106
  90.5379673  19.6321041  70.5868798  91.7113590  20.5439046  70.8761049
 101.4113839  15.8313570  72.0251839 100.5030716  15.7628979  71.7310600
 101.3601435  16.3085515  72.8533665  95.2330583  17.3071709  63.6635238
  95.1130208  17.7528760  64.5020719  94.5383171  17.6557026  63.1048776
  88.8237988  19.4078101  71.2134895  88.9530369  19.6612579  72.1274307
  88.1435439  20.0005809  70.8939550  92.9937475  30.0775351  67.3125370
  92.9161505  31.0283176  67.3913850  92.3899119  29.7321223  67.9700296
  95.4854705  17.2503216  79.9686736  94.7088039  17.8097136  79.9589601
  96.1245268  17.7359999  80.4901607 103.2775486  14.0330009  73.8029713
 102.6349866  14.3262542  73.1569508 102.7730414  13.9182929  74.6082910
 100.9315649  17.7793182  64.4915572 101.8433505  18.0120569  64.3163270
 100.4225296  18.3630226  63.9290651  93.7401077  20.0588669  79.5304703
  94.4815762  20.5973713  79.2539527  93.0338063  20.6854958  79.6876255
  99.2156417  22.2017810  78.1276865  99.6239773  21.7600220  77.3831497
  98.4933678  21.6270437  78.3811058  95.5687487  17.1390417  75.5010422
  96.4148682  17.5629830  75.6445071  95.5086125  16.4824041  76.1948985
  99.5385231  22.7619000  71.8829154  98.9094094  22.9264715  71.1805222
  99.1510894  23.1760610  72.6540118 103.4174463  23.6973438  69.2373518
 102.7325502  24.0772340  68.6870551 103.5018313  24.3068765  69.9705465
  98.7186932  14.7994785  77.1591596  98.4747864  15.5536845  76.6225871
  98.9946863  15.1780133  77.9938843 100.6725395  21.3433397  75.8368861
 100.8842290  21.9865157  75.1603242 100.6255143  20.5095714  75.3690791
  98.2751624  13.9551218  72.7405433  97.4136103  14.2532471  73.0322171
  98.3014059  14.1721617  71.8086466  95.0913193  22.4993408  69.1479239
  95.5551539  22.7781111  68.3583861  94.8269991  21.5976853  68.9652330
  91.9837274  22.0464890  72.0859002  92.5538632  22.4752158  71.4476487
  92.5745386  21.7647475  72.7843188  94.0282079  18.6216561  65.9568804
  94.7306123  19.0737605  66.4242730  93.6962708  17.9800380  66.5848697
  92.4762441  17.2128317  80.3320013  91.8461102  17.8944598  80.5655410
  92.3698529  17.1011399  79.3873152  87.7707413  16.8800114  71.2585938
  86.9806467  17.1357642  70.7826048  88.2618661  17.6948451  71.3637978
 101.7871223  24.2205353  74.0091218 102.6088667  23.8185540  73.7273900
 101.7833626  24.1173587  74.9607334  89.7222159  17.2444693  68.2169414
  88.9253322  17.3563387  68.7352910  89.4947751  17.5831345  67.3510305
  95.5527826  23.7689396  76.1651929  95.6172259  24.2309803  77.0010101
  94.8438750  23.1386761  76.2934239  86.0545116  17.1330604  73.6900928
  86.3053155  18.0177614  73.9558504  86.5904665  16.9535206  72.9176020
 109.8777216  20.5644101  70.3576190 109.1240924  19.9951499  70.2020194
 110.0124757  20.5306766  71.3046825  95.2675844  25.4357503  66.0330909
  95.1321519  26.2809039  66.4615757  95.8085657  25.6376781  65.2696843
  91.7543184  11.5149083  82.6945265  91.3610129  10.9615282  83.3692909
  92.5709324  11.8259662  83.0851782  88.7205241  22.9532942  66.6058834
  89.2329762  23.7476192  66.7564399  89.3727954  22.2559232  66.5392436
  90.5300126  26.0698698  68.6881588  90.7066754  26.9916662  68.5002571
  91.3256960  25.7557117  69.1175967  94.6711145  12.9306962  80.2865521
  95.4120858  13.5314116  80.2069984  94.9029068  12.1884600  79.7283564
  89.8152483  18.1163330  78.5643751  89.7005998  17.2148587  78.8650850
  88.9597000  18.3627026  78.2128567  96.8944320  26.0581070  80.1631251
  96.4508175  25.2717449  79.8452156  97.5561534  26.2460220  79.4975142
  91.6531442  27.5876872  74.6891930  92.2038867  27.4593935  73.9168924
  90.8142918  27.8871761  74.3386823  98.9925558  26.3383870  78.1912653
  98.9744034  27.1592751  77.6992922  99.9145479  26.2137945  78.4162794
  95.4498613  23.8527999  79.0336161  95.9826949  23.0916288  78.8035469
  94.9212694  23.5601651  79.7760315  86.6854158  21.2821596  67.3818405
  87.5229380  21.6918604  67.1652113  86.8632426  20.3421038  67.3518599
  98.5818590  18.9496676  63.0702238  98.0665214  19.7201281  63.3090625
  98.3095899  18.2761813  63.6935299  96.1665701  13.7946377  68.1287476
  95.3107298  13.4053228  67.9493115  96.5792653  13.8738338  67.2687262
  97.6964848  11.3292721  72.5279036  97.1929644  11.2922856  71.7146841
  97.9895455  12.2385463  72.5875693  93.9407734  11.4131450  71.5345218
  94.8060731  11.2174259  71.1751107  94.0085243  11.1841802  72.4614574
 103.5552864  21.7029031  65.0055411 102.7782307  21.3640191  64.5610573
 104.2344345  21.7081654  64.3310376  98.3704894  16.8223769  64.8962019
  98.0655029  17.1369918  65.7472162  99.3235336  16.9005188  64.9389352
  96.8151325  22.9813992  66.5454973  96.2872687  22.2466751  66.2328210
  96.3138828  23.7588668  66.2994941 101.7944171  21.1763012  71.6622019
 101.1367846  21.8662274  71.7502148 102.5984571  21.5659444  72.0056006
  91.5470053  13.6433658  68.9061585  92.1213805  13.4208840  68.1734777
  92.1341035  13.7122353  69.6590186 100.6049630  19.5307385  69.7125961
 101.1181512  20.1637377  70.2147671 101.2550854  18.9308581  69.3469321
  91.8739640  15.6738119  62.9257470  91.0376952  16.0112806  63.2466745
  91.7344410  15.5387099  61.9884607  93.8492721  10.5174907  67.6336654
  93.1957133  10.2023924  67.0093269  93.8073195   9.8950648  68.3596477
  94.9603926  20.7994202  59.5489946  94.0530987  20.5683456  59.7481095
  95.4574958  20.0031821  59.7363928  97.8672004  29.5091709  62.4686632
  97.1933703  29.8123406  63.0771590  98.2537826  30.3120790  62.1192089
  97.0830461  17.0056841  71.9584302  96.1653022  17.2271788  71.8005990
  97.4990605  17.0803151  71.0996009  97.8665509  18.4048256  67.0886982
  98.6137328  18.9169654  66.7794104  98.1357098  18.0832309  67.9491375
  96.1392159  20.9006797  64.0713936  95.2303378  20.6165830  64.1686406
  96.1687243  21.3205876  63.2117243 101.3711426  24.5113387  67.8405104
 100.9173753  23.6704296  67.8970294 100.7405393  25.1474785  68.1779884
 100.3144346  15.4405373  69.0705771  99.5767103  14.9282759  69.4016014
 100.5671119  15.0005754  68.2589048  99.8144366  26.3489883  68.7754922
 100.1067340  26.9094940  68.0567287 100.3242986  26.6418444  69.5308081
  86.7080329  18.6212311  68.0529138  86.5104729  18.0281672  67.3280205
  86.1526993  18.3164521  68.7705077  94.6877053  18.5135418  70.1723732
  94.7425663  17.5609254  70.0966208  93.8768255  18.6694857  70.6565030
  95.8368247  22.4415541  61.4102015  95.3987677  21.7251400  60.9507652
  96.5778688  22.6691656  60.8487106  92.6269413  17.1312477  67.9314110
  91.8137278  17.4306648  68.3379303  93.1228407  16.7368166  68.6488593
  94.7777991  27.1270234  69.8648375  94.7354170  27.3531081  68.9356907
  95.6940690  26.8933609  70.0134176  98.2243625  17.5954302  76.7629004
  98.5793012  17.8225775  77.6223470  98.8715756  17.9272679  76.1406260
 103.9541362  20.7172738  67.4678333 103.8159260  20.9074334  66.5399523
 103.5977580  21.4792121  67.9246384  92.1183488  14.7030833  73.5475345
  92.7582867  14.5619592  72.8498309  91.2861018  14.4165346  73.1713947
 103.9810741  22.7849265  72.4789605 104.4147248  22.6924554  73.3272659
 104.6942322  22.7606765  71.8409621  92.8943792  24.0033263  69.6610338
  93.6884390  23.5083583  69.4592913  92.1835484  23.4751126  69.2978043
  97.7138636  26.3851359  74.0122705  97.7675658  26.9542295  74.7800421
  96.8453417  26.5553244  73.6476743  89.2026555  18.1476345  65.7370090
  88.2724143  18.0860801  65.9540053  89.2984027  17.6252298  64.9406732
  89.1212104  14.6731158  68.3248332  89.3818921  15.5876491  68.2157493
  89.9429276  14.2055600  68.4744945  90.5937029  16.0868915  75.4947157
  91.2660083  15.8786277  74.8459806  89.7666816  15.8891001  75.0552389
 104.8426291  22.8272965  75.0122490 105.0362181  23.7318776  75.2581765
 104.7426909  22.3680384  75.8461075  96.4962601  12.7130856  77.5112818
  95.8490517  13.4120806  77.4177294  97.2663617  13.1467000  77.8789066
  99.9041399  22.9779708  80.5863371  99.7526906  22.7490260  79.6693455
  99.8946079  23.9350310  80.5994716  96.6726736  20.5511621  75.5709637
  97.6018796  20.7022780  75.3978605  96.2517766  20.6395642  74.7158284
  95.4715068  24.5762285  73.3408175  95.3326153  24.2081070  74.2134113
  94.6829664  25.0909925  73.1692133  96.0663220  29.6771382  64.6833711
  96.2414975  29.2059425  65.4979334  95.3796008  30.3037148  64.9114972
  97.0220283  23.9543888  70.7297013  96.6870115  23.9144658  71.6254663
  96.5224228  23.2888604  70.2567423  90.9964527  19.3611518  76.2549594
  90.8584325  18.6291757  76.8561133  91.9069450  19.2720418  75.9733782
  99.9579474  21.2999922  61.0034072  99.3408645  20.5746750  60.9067125
  99.4895963  22.0609283  60.6601147  93.6246827  19.0731477  75.7433273
  94.3346446  18.4324670  75.7019892  93.5816136  19.3244372  76.6659454
 101.6133606  26.0098831  78.6639853 101.5546152  25.3258051  77.9970436
 102.0153124  26.7517821  78.2120479  92.3375761  16.0596695  77.5628913
  91.8013118  15.6087434  78.2150509  91.7492470  16.1942604  76.8199377
  90.6324305  32.8260745  71.4573572  90.8720903  33.4579269  72.1352590
  89.7893501  32.4748785  71.7438931  91.7478020  15.5185347  60.1255377
  90.8707487  15.3974147  59.7617623  92.2235773  14.7271425  59.8734265
 101.6151013  23.9738415  76.8953832 100.7277792  23.6364336  77.0180231
 102.1849564  23.2421446  77.1322598  83.2680160  20.3062506  70.2196884
  83.9551200  19.9924236  69.6317899  83.1128289  21.2103871  69.9464135
  88.0714883  15.1952703  74.6481907  87.9873071  14.5878372  73.9132317
  87.2497589  15.6861721  74.6491404  95.1452167  28.6339867  73.8615076
  95.0722338  29.4394838  74.3734380  94.7029560  28.8331833  73.0363097
  94.9341946  27.8711637  67.3717897  94.1509468  28.4133317  67.4656122
  95.6334692  28.3885617  67.7712138  98.2438596  13.6806266  70.0152102
  98.7407296  12.9276229  69.6953173  97.4725578  13.7170583  69.4495312
 106.0968354  19.3846632  71.6570394 106.0858230  20.2671347  71.2864327
 105.2285733  19.0318183  71.4624931  97.6050850  28.5326701  76.0173234
  98.3178822  29.1674166  75.9449136  97.1140879  28.6290567  75.2013236
  99.3268377  22.4377954  67.5890526  98.3924656  22.5579416  67.4195230
  99.5045046  21.5350420  67.3250536  94.8273565  15.8223649  69.7423787
  94.4571353  15.2694690  70.4304693  95.3232658  15.2181783  69.1898787
 102.7140928  18.2795273  68.1240560 103.1801381  19.1123265  68.0500863
 103.1648429  17.8140255  68.8285819  92.6562764  26.2821144  76.8378805
  93.3572223  26.9157627  76.9908199  92.1857879  26.6235876  76.0774444
 100.7817160  24.6239094  65.1226712 101.0577003  24.5095689  66.0320586
  99.9121658  24.2256579  65.0838885 100.4564050  18.8365752  74.6631355
  99.8035500  19.0841659  74.0083808 100.8344430  18.0229890  74.3293833
  97.4171224  28.8725445  68.7659526  97.5993618  28.0547101  69.2287278
  98.2404210  29.0893137  68.3284416  97.7513389  27.7993630  66.0274574
  98.2801156  27.2886085  65.4144736  98.0141609  27.4836160  66.8920107
  96.5051623  19.5785563  81.1497392  95.8292260  19.4779692  81.8199768
  97.3279257  19.4224777  81.6133390  88.2530482  25.8157500  73.7709908
  88.8383919  25.0701187  73.9037812  88.0555320  26.1261456  74.6546572
  91.1069137  28.8508747  68.7872350  90.4379512  29.3354875  68.3036390
  90.9682007  29.0977967  69.7015729  82.8448137  18.3863100  72.4914351
  82.8832236  17.8526690  73.2851469  82.3388429  17.8598305  71.8725328
  95.2474406  30.8852490  75.3855008  95.7992714  31.0484112  76.1504094
  95.5880599  31.4756928  74.7135033  90.2238899  13.2327640  75.9876893
  90.2880225  14.0942471  75.5754291  90.1606019  12.6201642  75.2549252
  89.6991171  15.3050773  79.6349927  90.3263210  14.9227850  80.2487452
  88.8419090  15.0864975  80.0005620 100.0985280  25.7113748  81.2403663
 100.6425184  26.3243706  80.7458618  99.5172125  26.2693326  81.7570676
  86.4756714  17.1127202  65.5668282  86.7710155  16.2037880  65.5135336
  85.5744750  17.0914941  65.2449285  98.3842793  28.8334466  72.3718691
  98.2593932  28.0324206  71.8629636  99.0421884  29.3280659  71.8832661
  90.0050961  15.1883198  71.5495831  89.2837547  15.8019166  71.4103304
  90.7944217  15.7240963  71.4712477 100.4477701  26.6343486  73.9998241
  99.5008037  26.5148837  73.9276567 100.7960474  25.7465984  74.0824502
  92.8077275  12.5237625  77.8236483  93.3311676  12.7699921  78.5862792
  92.5889608  13.3557660  77.4039620  88.2044556  14.7941300  65.6907607
  87.8757262  13.9138678  65.5082713  88.5583926  14.7388968  66.5783997
  97.4524135  26.4296202  70.2002593  97.3049097  25.5012910  70.3810163
  98.2777628  26.4516293  69.7159668  91.3186379  15.0814269  66.0583085
  91.6582451  15.6100191  65.3361693  91.7658499  15.4194675  66.8341652
 101.0558256  27.2524761  71.2867466 101.9804804  27.0467622  71.1491917
 100.8873560  27.0041162  72.1956807  94.0129820  13.4651320  75.5086153
  93.6726640  12.6659133  75.9106833  93.3068826  13.7653031  74.9362986
  93.3054526  13.5788891  64.2576378  94.0262889  13.9570144  63.7540095
  92.6819830  14.2977768  64.3611356  97.4485649  14.2834040  65.1934710
  97.6649263  15.1658678  64.8923538  96.9679716  13.8920253  64.4640352
  92.1884870  17.2419753  71.7705455  92.0429451  17.5560056  72.6629736
  91.7110074  17.8604653  71.2176353  94.0481253  14.2322301  71.8186344
  94.0342822  13.3363394  71.4818642  94.7653681  14.2392965  72.4524630
  95.9007384  14.6659641  73.8639472  95.6425162  15.5876712  73.8623802
  95.3692424  14.2690076  74.5539936 100.8453573  27.7710428  66.6429557
 101.0190450  27.2056851  65.8903410 101.3382464  28.5711323  66.4609047
  86.6630532  19.7825098  74.7093116  86.1184001  20.5584905  74.8413390
  87.5409882  20.1295902  74.5512237  93.4518149  13.1136681  67.0873914
  93.5734060  12.1853328  67.2864802  93.1620191  13.1275367  66.1752230
 106.6992964  20.5346851  68.2619857 107.1424110  19.7854177  67.8638980
 105.8219474  20.5256988  67.8793589 101.8328745  27.0877193  63.7426455
 102.5279650  27.7083886  63.9613770 102.1751895  26.2372544  64.0178833
  87.4496554  18.9094994  77.6023273  86.7078290  19.0577629  78.1887903
  87.1289299  19.1703259  76.7390022 103.7320168  24.5376898  65.2713786
 104.2571492  24.8764171  64.5463106 103.6442521  23.6023914  65.0876921
  95.3940217  28.4510972  77.4003663  95.7027343  28.2060119  78.2726362
  96.1915699  28.6557610  76.9122533  95.4160829  30.6048882  69.6309039
  94.9765819  30.1125260  70.3241896  96.1668946  30.0621849  69.3901115
  87.8953168  26.7960422  69.6333667  88.7211188  26.4964194  69.2532311
  87.5447220  26.0268045  70.0823456  92.8634701  26.1486891  71.7031341
  92.2414710  25.4857596  71.4033569  93.5339568  26.1748023  71.0204989
  86.0961773  24.7146749  70.5922601  85.2593681  24.2868923  70.4106602
  86.0685418  24.9079192  71.5293392  92.9359229  14.6268679  81.2963847
  92.9847384  15.5030802  80.9141617  93.4781743  14.0846072  80.7235490
 103.4214074  25.1709802  80.5764984 102.6309618  25.1533941  80.0369484
 103.1847429  25.7098096  81.3314021 103.5411949  22.0202268  77.8897713
 103.5909954  21.8552276  78.8313235 103.4325873  21.1529527  77.4995593
  92.4248208  24.6990814  65.1789802  92.5736328  25.3826278  64.5256474
  93.2314652  24.6795904  65.6939257 100.8315712  18.0033196  79.2057019
 101.7325575  17.8639661  78.9141017 100.9063686  18.1687651  80.1455197
  95.1658517  15.3800051  78.0510206  94.2961826  15.6733617  77.7792794
  95.4017997  15.9640496  78.7717469 105.0430146  24.4399210  78.1339734
 104.7514955  24.8029190  78.9703195 104.4302277  23.7266218  77.9553066
 106.2425829  22.0052090  70.6542304 107.0772720  22.4441894  70.8179865
 106.3784957  21.5290743  69.8350550 103.2917334  19.5631825  76.6019792
 103.7671456  19.7559471  75.7938644 102.3682900  19.6191010  76.3563176
  90.1800841  20.7255992  66.1850870  89.9346883  19.8218322  66.3831081
  90.3496756  20.7273142  65.2430348  97.8697551  11.5979668  75.5675626
  98.3879495  12.3340695  75.2422115  97.5152684  11.9043661  76.4022385
  89.4496489  16.4584349  63.6837032  88.7565734  16.5328704  63.0277068
  89.2048240  15.6944693  64.2058549  95.9243614  27.1938945  62.6501549
  95.3517581  27.8129132  62.1972021  96.4976407  27.7438306  63.1841471
 101.9919003  16.4397585  74.8348098 102.9436426  16.5395682  74.8560322
 101.8222454  15.6475853  75.3446182 100.0133383  13.5253168  75.0207499
  99.4183315  13.8058181  74.3253987  99.7283080  14.0147069  75.7924240
  99.1440873  27.4776095  63.7810131 100.0771547  27.4121656  63.9843007
  99.0564086  28.3132361  63.3224664 101.7728890  26.7941965  60.7414079
 101.6942522  26.4601829  61.6349837 102.5938557  27.2863733  60.7405551
 104.4707081  19.6603704  73.9490397 104.4383401  18.7219705  74.1350081
 105.0807705  19.7387741  73.2156222  96.3090412  18.5299757  59.9917602
  97.2549517  18.4005965  60.0606020  95.9304657  17.7914419  60.4687030
 104.6201570  16.4514748  73.9948681 104.1040618  15.6673204  73.8078610
 105.5041518  16.1233464  74.1595200 110.2883631  20.7219711  73.0896434
 111.0187020  20.4604999  73.6504138 109.6790577  19.9848433  73.1298502
 108.3698928  18.8627574  73.6870885 107.6432092  18.7283539  73.0787377
 107.9546215  19.1704402  74.4927604  96.1929105  22.5817503  81.4518258
  97.1132114  22.7596102  81.6458305  96.1578688  21.6373549  81.2997958
  94.4933329  16.4549734  59.9272487  93.5864785  16.1582846  60.0035200
  94.7709310  16.1579552  59.0606773  85.4111270  17.7756097  70.3771533
  85.0914054  16.9221405  70.0845907  84.8644698  17.9904675  71.1329500
  89.1891177  20.4918538  74.0941040  89.4077187  21.4235646  74.1129073
  89.6016951  20.1326512  74.8795843  96.1095395  10.9986623  66.0816728
  95.2996123  10.6533708  66.4571974  96.7979812  10.6894167  66.6704340
  94.0619042  16.0651744  83.4843789  93.9615769  17.0146101  83.4155880
  93.8440585  15.7369983  82.6119859  93.2632114  13.3136669  60.0684466
  94.1251278  13.6391567  60.3280283  93.4482458  12.5268165  59.5557532
  85.2799530  21.3959009  72.3464655  84.5863001  20.9812961  71.8334609
  86.0272521  21.4379545  71.7498074  93.9250313  19.4948883  82.3008850
  93.4417394  20.2949243  82.5072739  94.0111252  19.5056828  81.3476294
  87.1936272  21.3277262  70.2230670  87.1706960  21.4264950  69.2712553
  87.5036909  22.1742413  70.5447836  89.8523650  23.3853417  74.3377284
  90.8066904  23.3537360  74.2707216  89.6536174  22.9244041  75.1527510
  90.4423032  21.9554533  76.9048082  91.2615921  22.4498612  76.9282919
  90.7159840  21.0386502  76.8765649 100.1989628  14.3465286  66.2676037
  99.3115483  14.6314936  66.0496232 100.6143617  14.1859049  65.4203314
 103.5504165  14.3711807  69.9830376 104.3264555  14.8608259  70.2554993
 102.8252299  14.7969861  70.4402246 105.9876723  15.0839426  71.0404317
 106.5821214  14.8435162  70.3297625 106.0603307  14.3646556  71.6677853
  88.2073879  28.9273037  71.3547482  88.0728347  28.1673438  70.7885480
  87.7905941  29.6513937  70.8876271  99.3432842  24.1109960  60.3624057
 100.0468692  24.3159963  60.9781713  98.6195491  24.6786722  60.6273141
 100.1730652  19.8619822  66.4826327 100.1165854  20.3188373  65.6433960
 100.7258995  19.1010506  66.3049170 103.9835458  15.6509554  67.3076447
 103.7272392  15.2506189  68.1384655 103.3588326  16.3653347  67.1826586
 108.2947796  18.3905627  69.8147738 107.7347354  18.4598816  70.5879300
 107.6891299  18.2146611  69.0947234  91.3643005  29.8242354  71.5665925
  91.2475389  30.7687786  71.4644615  90.5435451  29.5215915  71.9551724
 101.2519539  24.5492490  62.4122517 102.0865143  24.1173688  62.2299992
 101.0903882  24.3774503  63.3399412 100.9065431  21.0524603  63.7778857
 100.8514235  20.8868874  62.8367301 100.2811487  21.7600636  63.9341046
  85.6957946  16.2892667  77.6040279  86.3416810  15.7791621  78.0927504
  85.4875098  17.0261349  78.1783704  98.2211339  23.3573515  83.1032419
  99.0902498  23.5314167  82.7419054  97.7418090  24.1767932  82.9808149
  94.2161557  10.5532712  63.3564175  94.2040227  11.4974552  63.5132446
  95.1084979  10.3702857  63.0623636  92.3897519  30.4770616  74.7821853
  93.2924766  30.5094226  75.0988348  92.1634889  29.5471067  74.7968189
  94.1451121  29.2301602  71.4431932  93.1946752  29.2303464  71.3296304
  94.4483607  28.4834337  70.9267966  90.0355437  13.4360284  81.7015293
  90.8986899  13.0797089  81.9118618  89.4620848  13.0974179  82.3890697
 109.8803814  35.0662141  72.5077694 110.5182224  34.9468888  71.8041034
 109.7624657  36.0142985  72.5665646 106.6893521  35.0189569  72.4439219
 106.3512032  34.9030634  71.5559754 107.5583289  34.6180734  72.4240225
 102.5480336  36.8725045  68.4336110 101.9845201  36.7814982  67.6652397
 102.4332731  36.0524950  68.9138602 107.1713304  36.1724421  78.4025424
 107.1601944  35.7777219  77.5305928 107.3333943  35.4390493  78.9959196
 100.0944768  38.3676237  71.2720330 100.8866060  38.0267061  70.8566629
 100.3341418  38.4771212  72.1922483 108.1279895  40.5396013  63.7450575
 107.4767875  41.1250093  63.3584588 108.9224258  41.0702208  63.8045612
 102.0535522  37.6285150  64.1437709 102.8266398  37.0814137  64.0050585
 102.4060921  38.4929399  64.3552170 103.8920565  38.9561532  77.3504608
 103.6010431  39.8607163  77.2351274 104.5277549  38.9978060  78.0648678
 104.8176772  36.3338381  73.9405968 105.4140344  36.1094403  73.2262931
 104.8751743  35.5923126  74.5431416 104.3901800  33.7877816  61.7756159
 104.6427321  33.2659337  61.0139622 103.4526359  33.6243962  61.8782842
 109.4345083  32.7913595  69.5830902 110.2208172  32.3733018  69.2321319
 109.6983787  33.6959687  69.7512550 109.6055160  38.2286445  64.2819559
 108.9700993  38.3021071  64.9940463 109.2752567  38.8180044  63.6038638
 114.8353510  32.7288828  70.4863881 115.5678682  32.1588045  70.7201710
 114.0792866  32.3410428  70.9270386 104.1098089  35.6905922  63.9780534
 103.9934347  35.0150826  64.6461618 104.2200349  35.2038296  63.1612687
 106.4529630  35.1516069  67.6827223 106.0887837  34.6246690  68.3940144
 107.3096746  34.7614538  67.5093708 112.3578930  26.4410402  74.9458489
 112.0262255  27.3105813  74.7219704 111.7624544  26.1246686  75.6252520
 106.0935117  30.1805969  62.6788572 106.2609519  31.0486205  63.0459043
 105.9032286  30.3433251  61.7549861 108.8510450  38.6422948  74.3454402
 108.5511173  39.5447987  74.2370209 108.5061509  38.3755131  75.1975555
 102.3022931  35.0936745  70.3791106 101.3773428  34.9612959  70.5868798
 102.5507345  35.8730964  70.8761049 112.2507594  31.1605488  72.0251839
 111.3424471  31.0920896  71.7310600 112.1995189  31.6377433  72.8533665
 106.0724338  32.6363626  63.6635238 105.9523963  33.0820677  64.5020719
 105.3776926  32.9848944  63.1048776  99.6631742  34.7370018  71.2134895
  99.7924124  34.9904497  72.1274307  98.9829194  35.3297726  70.8939550
 103.8331230  45.4067268  67.3125370 103.7555259  46.3575093  67.3913850
 103.2292873  45.0613141  67.9700296 106.3248459  32.5795134  79.9686736
 105.5481793  33.1389054  79.9589601 106.9639022  33.0651917  80.4901607
 114.1169240  29.3621926  73.8029713 113.4743620  29.6554460  73.1569508
 113.6124169  29.2474847  74.6082910 111.7709404  33.1085100  64.4915572
 112.6827260  33.3412486  64.3163270 111.2619051  33.6922144  63.9290651
 104.5794832  35.3880587  79.5304703 105.3209516  35.9265631  79.2539527
 103.8731817  36.0146876  79.6876255 110.0550171  37.5309727  78.1276865
 110.4633527  37.0892138  77.3831497 109.3327433  36.9562355  78.3811058
 106.4081241  32.4682334  75.5010422 107.2542437  32.8921748  75.6445071
 106.3479879  31.8115959  76.1948985 110.3778986  38.0910918  71.8829154
 109.7487848  38.2556632  71.1805222 109.9904648  38.5052528  72.6540118
 114.2568218  39.0265356  69.2373518 113.5719256  39.4064257  68.6870551
 114.3412067  39.6360683  69.9705465 109.5580687  30.1286703  77.1591596
 109.3141619  30.8828763  76.6225871 109.8340617  30.5072050  77.9938843
 111.5119149  36.6725315  75.8368861 111.7236045  37.3157075  75.1603242
 111.4648898  35.8387632  75.3690791 109.1145378  29.2843136  72.7405433
 108.2529857  29.5824389  73.0322171 109.1407813  29.5013534  71.8086466
 105.9306948  37.8285326  69.1479239 106.3945293  38.1073029  68.3583861
 105.6663746  36.9268771  68.9652330 102.8231029  37.3756808  72.0859002
 103.3932386  37.8044076  71.4476487 103.4139141  37.0939392  72.7843188
 104.8675834  33.9508479  65.9568804 105.5699877  34.4029522  66.4242730
 104.5356462  33.3092297  66.5848697 103.3156195  32.5420235  80.3320013
 102.6854856  33.2236516  80.5655410 103.2092283  32.4303317  79.3873152
  98.6101168  32.2092031  71.2585938  97.8200222  32.4649560  70.7826048
  99.1012415  33.0240369  71.3637978 112.6264977  39.5497270  74.0091218
 113.4482421  39.1477458  73.7273900 112.6227380  39.4465505  74.9607334
 100.5615913  32.5736610  68.2169414  99.7647077  32.6855305  68.7352910
 100.3341505  32.9123263  67.3510305 106.3921581  39.0981314  76.1651929
 106.4566013  39.5601721  77.0010101 105.6832505  38.4678679  76.2934239
  96.8938871  32.4622522  73.6900928  97.1446909  33.3469532  73.9558504
  97.4298419  32.2827123  72.9176020 106.1069599  40.7649421  66.0330909
 105.9715273  41.6100957  66.4615757 106.6479411  40.9668699  65.2696843
 102.5936938  26.8441001  82.6945265 102.2003884  26.2907200  83.3692909
 103.4103078  27.1551579  83.0851782  99.5598996  38.2824859  66.6058834
 100.0723516  39.0768109  66.7564399 100.2121709  37.5851150  66.5392436
 101.3693881  41.3990615  68.6881588 101.5460509  42.3208580  68.5002571
 102.1650714  41.0849035  69.1175967 105.5104899  28.2598880  80.2865521
 106.2514613  28.8606033  80.2069984 105.7422822  27.5176518  79.7283564
 100.6546237  33.4455247  78.5643751 100.5399752  32.5440505  78.8650850
  99.7990755  33.6918944  78.2128567 107.7338075  41.3872988  80.1631251
 107.2901929  40.6009366  79.8452156 108.3955288  41.5752138  79.4975142
 102.4925196  42.9168789  74.6891930 103.0432621  42.7885853  73.9168924
 101.6536672  43.2163678  74.3386823 109.8319313  41.6675788  78.1912653
 109.8137788  42.4884669  77.6992922 110.7539233  41.5429863  78.4162794
 106.2892367  39.1819917  79.0336161 106.8220704  38.4208205  78.8035469
 105.7606448  38.8893569  79.7760315 109.4562062  24.2879983  74.5629803
 109.1126331  25.1781625  74.4868913 109.8241025  24.0981641  73.6999388
  97.5247913  36.6113513  67.3818405  98.3623135  37.0210522  67.1652113
  97.7026180  35.6712956  67.3518599 109.4212345  34.2788594  63.0702238
 108.9058968  35.0493199  63.3090625 109.1489653  33.6053730  63.6935299
 107.0059456  29.1238295  68.1287476 106.1501052  28.7345145  67.9493115
 107.4186408  29.2030256  67.2687262 108.5358602  26.6584638  72.5279036
 108.0323398  26.6214773  71.7146841 108.8289209  27.5677381  72.5875693
 104.7801488  26.7423368  71.5345218 105.6454485  26.5466177  71.1751107
 104.8478997  26.5133720  72.4614574 114.3946619  37.0320949  65.0055411
 113.6176062  36.6932108  64.5610573 115.0738100  37.0373572  64.3310376
 109.2098648  32.1515686  64.8962019 108.9048784  32.4661835  65.7472162
 110.1629090  32.2297106  64.9389352 107.6545080  38.3105910  66.5454973
 107.1266441  37.5758669  66.2328210 107.1532583  39.0880586  66.2994941
 112.6337926  36.5054930  71.6622019 111.9761600  37.1954191  71.7502148
 113.4378325  36.8951362  72.0056006 102.3863807  28.9725576  68.9061585
 102.9607559  28.7500757  68.1734777 102.9734790  29.0414270  69.6590186
 111.4443385  34.8599303  69.7125961 111.9575266  35.4929295  70.2147671
 112.0944609  34.2600498  69.3469321 102.7133395  31.0030037  62.9257470
 101.8770707  31.3404723  63.2466745 102.5738164  30.8679017  61.9884607
 104.6886475  25.8466825  67.6336654 104.0350888  25.5315842  67.0093269
 104.6466949  25.2242565  68.3596477 105.7997680  36.1286120  59.5489946
 104.8924742  35.8975373  59.7481095 106.2968712  35.3323739  59.7363928
 108.7065759  44.8383627  62.4686632 108.0327458  45.1415324  63.0771590
 109.0931581  45.6412707  62.1192089 107.9224216  32.3348758  71.9584302
 107.0046777  32.5563705  71.8005990 108.3384359  32.4095069  71.0996009
 108.7059263  33.7340174  67.0886982 109.4531082  34.2461571  66.7794104
 108.9750853  33.4124227  67.9491375 106.9785913  36.2298715  64.0713936
 106.0697133  35.9457748  64.1686406 107.0080997  36.6497793  63.2117243
 112.2105181  39.8405304  67.8405104 111.7567508  38.9996214  67.8970294
 111.5799148  40.4766703  68.1779884 111.1538100  30.7697290  69.0705771
 110.4160857  30.2574676  69.4016014 111.4064874  30.3297672  68.2589048
 110.6538120  41.6781801  68.7754922 110.9461094  42.2386858  68.0567287
 111.1636741  41.9710362  69.5308081 111.2549728  23.5473542  69.6647540
 111.5608605  22.6870906  69.3773456 111.9802333  24.1391162  69.4646534
  97.5474084  33.9504229  68.0529138  97.3498484  33.3573590  67.3280205
  96.9920748  33.6456439  68.7705077 105.5270808  33.8427335  70.1723732
 105.5819417  32.8901172  70.0966208 104.7162010  33.9986774  70.6565030
 106.6762001  37.7707458  61.4102015 106.2381431  37.0543317  60.9507652
 107.4172442  37.9983573  60.8487106 103.4663167  32.4604395  67.9314110
 102.6531033  32.7598566  68.3379303 103.9622162  32.0660084  68.6488593
 105.6171745  42.4562152  69.8648375 105.5747924  42.6822998  68.9356907
 106.5334444  42.2225527  70.0134176 109.0637379  32.9246220  76.7629004
 109.4186767  33.1517693  77.6223470 109.7109510  33.2564596  76.1406260
 114.7935116  36.0464655  67.4678333 114.6553015  36.2366251  66.5399523
 114.4371335  36.8084038  67.9246384 102.9577242  30.0322751  73.5475345
 103.5976622  29.8911510  72.8498309 102.1254773  29.7457264  73.1713947
 114.8204496  38.1141182  72.4789605 115.2541002  38.0216472  73.3272659
 115.5336076  38.0898683  71.8409621 103.7337546  39.3325181  69.6610338
 104.5278145  38.8375501  69.4592913 103.0229238  38.8043044  69.2978043
 108.5532391  41.7143277  74.0122705 108.6069413  42.2834213  74.7800421
 107.6847172  41.8845162  73.6476743 100.0420310  33.4768263  65.7370090
  99.1117898  33.4152718  65.9540053 100.1377782  32.9544215  64.9406732
  99.9605859  30.0023076  68.3248332 100.2212676  30.9168409  68.2157493
 100.7823031  29.5347518  68.4744945 101.4330784  31.4160833  75.4947157
 102.1053837  31.2078195  74.8459806 100.6060570  31.2182919  75.0552389
 115.6820045  38.1564883  75.0122490 115.8755935  39.0610694  75.2581765
 115.5820663  37.6972302  75.8461075 107.3356356  28.0422774  77.5112818
 106.6884271  28.7412723  77.4177294 108.1057371  28.4758918  77.8789066
 110.7435154  38.3071626  80.5863371 110.5920660  38.0782178  79.6693455
 110.7339833  39.2642227  80.5994716 107.5120490  35.8803539  75.5709637
 108.4412550  36.0314698  75.3978605 107.0911520  35.9687559  74.7158284
 106.3108822  39.9054203  73.3408175 106.1719908  39.5372987  74.2134113
 105.5223418  40.4201842  73.1692133 106.9056974  45.0063299  64.6833711
 107.0808730  44.5351343  65.4979334 106.2189762  45.6329066  64.9114972
 107.8614037  39.2835806  70.7297013 107.5263870  39.2436576  71.6254663
 107.3617983  38.6180522  70.2567423 101.8358281  34.6903436  76.2549594
 101.6978079  33.9583675  76.8561133 102.7463205  34.6012336  75.9733782
 110.7973229  36.6291840  61.0034072 110.1802400  35.9038668  60.9067125
 110.3289717  37.3901200  60.6601147 104.4640582  34.4023395  75.7433273
 105.1740200  33.7616587  75.7019892 104.4209890  34.6536290  76.6659454
 112.4527361  41.3390748  78.6639853 112.3939907  40.6549968  77.9970436
 112.8546879  42.0809738  78.2120479 103.1769516  31.3888613  77.5628913
 102.6406873  30.9379351  78.2150509 102.5886224  31.5234522  76.8199377
 101.4718059  48.1552662  71.4573572 101.7114658  48.7871186  72.1352590
 100.6287256  47.8040702  71.7438931 102.5871775  30.8477264  60.1255377
 101.7101241  30.7266065  59.7617623 103.0629528  30.0563343  59.8734265
 112.4544768  39.3030332  76.8953832 111.5671547  38.9656254  77.0180231
 113.0243319  38.5713364  77.1322598  94.1073915  35.6354424  70.2196884
  94.7944955  35.3216154  69.6317899  93.9522044  36.5395789  69.9464135
  98.9108637  30.5244621  74.6481907  98.8266826  29.9170290  73.9132317
  98.0891343  31.0153639  74.6491404 105.9845921  43.9631785  73.8615076
 105.9116093  44.7686756  74.3734380 105.5423314  44.1623750  73.0363097
 105.7735701  43.2003555  67.3717897 104.9903223  43.7425235  67.4656122
 106.4728446  43.7177534  67.7712138 109.0832351  29.0098184  70.0152102
 109.5801050  28.2568146  69.6953173 108.3119332  29.0462501  69.4495312
 108.4444605  43.8618619  76.0173234 109.1572577  44.4966083  75.9449136
 107.9534633  43.9582485  75.2013236 110.1662132  37.7669871  67.5890526
 109.2318410  37.8871334  67.4195230 110.3438800  36.8642338  67.3250536
 105.6667320  31.1515567  69.7423787 105.2965107  30.5986608  70.4304693
 106.1626412  30.5473701  69.1898787 113.5534683  33.6087191  68.1240560
 114.0195135  34.4415182  68.0500863 114.0042183  33.1432172  68.8285819
 103.4956518  41.6113062  76.8378805 104.1965978  42.2449545  76.9908199
 103.0251633  41.9527794  76.0774444 111.6210914  39.9531012  65.1226712
 111.8970758  39.8387607  66.0320586 110.7515413  39.5548497  65.0838885
 111.5251346  25.9767778  72.1631461 110.6114426  26.2072004  72.3313668
 111.9544447  26.0606222  73.0145494 111.2957804  34.1657670  74.6631355
 110.6429254  34.4133577  74.0083808 111.6738184  33.3521808  74.3293833
 108.2564978  44.2017363  68.7659526 108.4387373  43.3839019  69.2287278
 109.0797964  44.4185055  68.3284416 108.5907144  43.1285548  66.0274574
 109.1194910  42.6178002  65.4144736 108.8535363  42.8128078  66.8920107
 107.3445377  34.9077481  81.1497392 106.6686014  34.8071610  81.8199768
 108.1673011  34.7516694  81.6133390  99.0924236  41.1449417  73.7709908
  99.6777673  40.3993105  73.9037812  98.8949075  41.4553374  74.6546572
 101.9462892  44.1800665  68.7872350 101.2773267  44.6646792  68.3036390
 101.8075761  44.4269885  69.7015729  93.6841891  33.7155017  72.4914351
  93.7225991  33.1818608  73.2851469  93.1782184  33.1890223  71.8725328
 106.0868160  46.2144408  75.3855008 106.6386468  46.3776030  76.1504094
 106.4274354  46.8048846  74.7135033 101.0632653  28.5619558  75.9876893
 101.1273980  29.4234389  75.5754291 100.9999774  27.9493560  75.2549252
 100.5384926  30.6342690  79.6349927 101.1656965  30.2519768  80.2487452
  99.6812845  30.4156892  80.0005620 110.9379034  41.0405666  81.2403663
 111.4818938  41.6535624  80.7458618 110.3565879  41.5985244  81.7570676
  97.3150469  32.4419120  65.5668282  97.6103910  31.5329798  65.5135336
  96.4138504  32.4206859  65.2449285 109.2236547  44.1626384  72.3718691
 109.0987687  43.3616123  71.8629636 109.8815639  44.6572577  71.8832661
 100.8444716  30.5175116  71.5495831 100.1231301  31.1311084  71.4103304
 101.6337971  31.0532881  71.4712477 111.2871456  41.9635404  73.9998241
 110.3401791  41.8440755  73.9276567 111.6354229  41.0757902  74.0824502
 103.6471029  27.8529543  77.8236483 104.1705431  28.0991839  78.5862792
 103.4283362  28.6849577  77.4039620  99.0438310  30.1233217  65.6907607
  98.7151016  29.2430596  65.5082713  99.3977681  30.0680886  66.5783997
 108.2917889  41.7588120  70.2002593 108.1442852  40.8304827  70.3810163
 109.1171383  41.7808211  69.7159668 102.1580133  30.4106187  66.0583085
 102.4976206  30.9392108  65.3361693 102.6052254  30.7486593  66.8341652
 111.8952011  42.5816679  71.2867466 112.8198558  42.3759540  71.1491917
 111.7267314  42.3333080  72.1956807 104.8523574  28.7943238  75.5086153
 104.5120395  27.9951051  75.9106833 104.1462580  29.0944949  74.9362986
 105.5040046  25.8792550  73.9613476 106.3266115  25.4053028  73.8392366
 105.7478110  26.6583034  74.4612162 104.1448281  28.9080809  64.2576378
 104.8656643  29.2862061  63.7540095 103.5213585  29.6269685  64.3611356
 108.2879403  29.6125958  65.1934710 108.5043018  30.4950595  64.8923538
 107.8073471  29.2212171  64.4640352 103.0278625  32.5711671  71.7705455
 102.8823206  32.8851974  72.6629736 102.5503828  33.1896571  71.2176353
 104.8875008  29.5614219  71.8186344 104.8736576  28.6655312  71.4818642
 105.6047436  29.5684883  72.4524630 106.7401138  29.9951559  73.8639472
 106.4818916  30.9168630  73.8623802 106.2086179  29.5981994  74.5539936
 111.6847327  43.1002346  66.6429557 111.8584205  42.5348769  65.8903410
 112.1776218  43.9003241  66.4609047  97.5024287  35.1117015  74.7093116
  96.9577755  35.8876823  74.8413390  98.3803637  35.4587820  74.5512237
 104.2911904  28.4428599  67.0873914 104.4127815  27.5145245  67.2864802
 104.0013946  28.4567285  66.1752230 107.1603094  26.1283509  70.2240634
 107.1824791  26.1922843  69.2692614 107.5771153  25.2888018  70.4181140
 112.6722500  42.4169111  63.7426455 113.3673404  43.0375803  63.9613770
 113.0145650  41.5664462  64.0178833  98.2890309  34.2386911  77.6023273
  97.5472045  34.3869547  78.1887903  97.9683053  34.4995177  76.7390022
 114.5713923  39.8668816  65.2713786 115.0965247  40.2056089  64.5463106
 114.4836275  38.9315831  65.0876921 106.2333971  43.7802890  77.4003663
 106.5421098  43.5352036  78.2726362 107.0309453  43.9849528  76.9122533
 106.2554583  45.9340799  69.6309039 105.8159574  45.4417178  70.3241896
 107.0062700  45.3913767  69.3901115  98.7346922  42.1252340  69.6333667
  99.5604942  41.8256112  69.2532311  98.3840974  41.3559963  70.0823456
 103.7028456  41.4778808  71.7031341 103.0808465  40.8149513  71.4033569
 104.3733323  41.5039940  71.0204989  96.9355528  40.0438667  70.5922601
  96.0987436  39.6160841  70.4106602  96.9079173  40.2371110  71.5293392
 103.7752983  29.9560596  81.2963847 103.8241139  30.8322719  80.9141617
 104.3175497  29.4137989  80.7235490 114.2607829  40.5001720  80.5764984
 113.4703373  40.4825859  80.0369484 114.0241183  41.0390013  81.3314021
 114.3805704  37.3494186  77.8897713 114.4303709  37.1844193  78.8313235
 114.2719627  36.4821445  77.4995593 103.2641963  40.0282732  65.1789802
 103.4130083  40.7118196  64.5256474 104.0708406  40.0087822  65.6939257
 111.6709466  33.3325114  79.2057019 112.5719329  33.1931579  78.9141017
 111.7457441  33.4979569  80.1455197 106.0052272  30.7091969  78.0510206
 105.1355581  31.0025535  77.7792794 106.2411752  31.2932414  78.7717469
 115.8823901  39.7691128  78.1339734 115.5908709  40.1321108  78.9703195
 115.2696032  39.0558136  77.9553066 114.1311089  34.8923742  76.6019792
 114.6065211  35.0851389  75.7938644 113.2076654  34.9482928  76.3563176
 101.0194596  36.0547909  66.1850870 100.7740637  35.1510239  66.3831081
 101.1890510  36.0565060  65.2430348 108.7091305  26.9271586  75.5675626
 109.2273249  27.6632613  75.2422115 108.3546438  27.2335579  76.4022385
 100.2890243  31.7876267  63.6837032  99.5959488  31.8620622  63.0277068
 100.0441995  31.0236611  64.2058549 108.9603900  23.3471868  71.0876523
 109.2405653  22.6795057  71.7136949 109.7454507  23.5400964  70.5751187
 106.7637368  42.5230862  62.6501549 106.1911335  43.1421049  62.1972021
 107.3370162  43.0730224  63.1841471 112.8312758  31.7689502  74.8348098
 113.7830181  31.8687600  74.8560322 112.6616208  30.9767771  75.3446182
 110.8527137  28.8545085  75.0207499 110.2577070  29.1350098  74.3253987
 110.5676834  29.3438986  75.7924240 109.9834628  42.8068012  63.7810131
 110.9165301  42.7413574  63.9843007 109.8957841  43.6424279  63.3224664
 112.6122645  42.1233883  60.7414079 112.5336276  41.7893746  61.6349837
 113.4332311  42.6155651  60.7405551 107.1484167  33.8591675  59.9917602
 108.0943271  33.7297883  60.0606020 106.7698412  33.1206337  60.4687030
 113.1206051  25.5247681  69.9544493 112.9230872  25.2162769  70.8387825
 113.7305757  26.2509320  70.0842423 107.0322859  37.9109421  81.4518258
 107.9525869  38.0888020  81.6458305 106.9972442  36.9665466  81.2997958
 105.3327084  31.7841651  59.9272487 104.4258539  31.4874764  60.0035200
 105.6103065  31.4871469  59.0606773  96.2505024  33.1048015  70.3771533
  95.9307808  32.2513323  70.0845907  95.7038452  33.3196593  71.1329500
 100.0284932  35.8210456  74.0941040 100.2470941  36.7527564  74.1129073
 100.4410705  35.4618430  74.8795843 106.9489149  26.3278541  66.0816728
 106.1389878  25.9825626  66.4571974 107.6373566  26.0186085  66.6704340
 108.8779698  25.4056588  67.7041025 109.4310736  25.8252041  68.3631048
 109.1149784  24.4792336  67.7463981 104.9012797  31.3943661  83.4843789
 104.8009524  32.3438018  83.4155880 104.6834339  31.0661900  82.6119859
 104.1025868  28.6428587  60.0684466 104.9645032  28.9683485  60.3280283
 104.2876213  27.8560082  59.5557532  96.1193284  36.7250926  72.3464655
  95.4256756  36.3104879  71.8334609  96.8666275  36.7671463  71.7498074
 112.2558505  27.5157113  67.2119689 111.6757174  28.1741917  66.8297741
 111.9894438  26.6934458  66.8007106 110.7062071  26.9162171  69.4141009
 111.2061850  27.0278705  68.6055328 111.3497679  26.6123224  70.0541818
 104.7644067  34.8240800  82.3008850 104.2811149  35.6241160  82.5072739
 104.8505006  34.8348745  81.3476294  98.0330027  36.6569180  70.2230670
  98.0100715  36.7556867  69.2712553  98.3430663  37.5034331  70.5447836
 100.6917405  38.7145335  74.3377284 101.6460658  38.6829277  74.2707216
 100.4929928  38.2535959  75.1527510 101.2816787  37.2846451  76.9048082
 102.1009676  37.7790530  76.9282919 101.5553594  36.3678419  76.8765649
 111.0383383  29.6757203  66.2676037 110.1509238  29.9606854  66.0496232
 111.4537372  29.5150967  65.4203314 114.3897919  29.7003724  69.9830376
 115.1658309  30.1900177  70.2554993 113.6646053  30.1261779  70.4402246
  99.0467633  44.2564955  71.3547482  98.9122101  43.4965355  70.7885480
  98.6299696  44.9805854  70.8876271 110.1826596  39.4401878  60.3624057
 110.8862446  39.6451881  60.9781713 109.4589245  40.0078640  60.6273141
 111.0124407  35.1911739  66.4826327 110.9559608  35.6480291  65.6433960
 111.5652749  34.4302424  66.3049170 114.8229213  30.9801471  67.3076447
 114.5666147  30.5798107  68.1384655 114.1982081  31.6945265  67.1826586
 102.2036759  45.1534272  71.5665925 102.0869143  46.0979704  71.4644615
 101.3829205  44.8507833  71.9551724 112.0913294  39.8784407  62.4122517
 112.9258898  39.4465606  62.2299992 111.9297637  39.7066421  63.3399412
 111.7459186  36.3816521  63.7778857 111.6907990  36.2160792  62.8367301
 111.1205241  37.0892553  63.9341046  96.5351701  31.6184585  77.6040279
  97.1810564  31.1083539  78.0927504  96.3268852  32.3553267  78.1783704
 109.0605093  38.6865432  83.1032419 109.9296253  38.8606085  82.7419054
 108.5811845  39.5059849  82.9808149 105.0555311  25.8824630  63.3564175
 105.0433981  26.8266470  63.5132446 105.9478733  25.6994775  63.0623636
 103.2291273  45.8062533  74.7821853 104.1318520  45.8386144  75.0988348
 103.0028643  44.8762984  74.7968189 104.9844875  44.5593520  71.4431932
 104.0340506  44.5595382  71.3296304 105.2877361  43.8126255  70.9267966
 108.8707431  22.4767406  67.6110112 108.1039827  21.9225893  67.7566794
 109.2818136  22.5489275  68.4724263 100.8749192  28.7652202  81.7015293
 101.7380653  28.4089007  81.9118618 100.3014603  28.4266097  82.3890697
 113.3874091  52.2016963  68.4336110 112.8238956  52.1106900  67.6652397
 113.2726486  51.3816867  68.9138602 110.9338523  53.6968154  71.2720330
 111.7259815  53.3558979  70.8566629 111.1735173  53.8063130  72.1922483
 112.8929277  52.9577068  64.1437709 113.6660153  52.4106055  64.0050585
 113.2454676  53.8221317  64.3552170 114.7314319  54.2853450  77.3504608
 114.4404185  55.1899081  77.2351274 115.3671304  54.3269978  78.0648678
 115.2295554  49.1169734  61.7756159 115.4821075  48.5951255  61.0139622
 114.2920114  48.9535879  61.8782842 114.9491843  51.0197840  63.9780534
 114.8328101  50.3442743  64.6461618 115.0594103  50.5330214  63.1612687
 113.1416686  50.4228662  70.3791106 112.2167182  50.2904876  70.5868798
 113.3901099  51.2022882  70.8761049 110.5025497  50.0661936  71.2134895
 110.6317878  50.3196415  72.1274307 109.8222948  50.6589644  70.8939550
 114.6724984  60.7359186  67.3125370 114.5949014  61.6867011  67.3913850
 114.0686628  60.3905058  67.9700296 113.6624783  52.7048725  72.0859002
 114.2326140  53.1335994  71.4476487 114.2532895  52.4231310  72.7843188
 114.1549950  47.8712153  80.3320013 113.5248611  48.5528434  80.5655410
 114.0486038  47.7595234  79.3873152 109.4494922  47.5383949  71.2585938
 108.6593976  47.7941477  70.7826048 109.9406170  48.3532287  71.3637978
 111.4009668  47.9028528  68.2169414 110.6040831  48.0147222  68.7352910
 111.1735260  48.2415180  67.3510305 107.7332625  47.7914439  73.6900928
 107.9840664  48.6761449  73.9558504 108.2692174  47.6119041  72.9176020
 113.4330693  42.1732919  82.6945265 113.0397638  41.6199117  83.3692909
 114.2496833  42.4843497  83.0851782 110.3992750  53.6116777  66.6058834
 110.9117271  54.4060027  66.7564399 111.0515463  52.9143067  66.5392436
 112.2087635  56.7282533  68.6881588 112.3854263  57.6500498  68.5002571
 113.0044469  56.4140952  69.1175967 111.4939992  48.7747165  78.5643751
 111.3793507  47.8732422  78.8650850 110.6384509  49.0210862  78.2128567
 113.3318951  58.2460707  74.6891930 113.8826376  58.1177770  73.9168924
 112.4930426  58.5455596  74.3386823 108.3641667  51.9405431  67.3818405
 109.2016889  52.3502440  67.1652113 108.5419935  51.0004873  67.3518599
 113.2257562  44.3017494  68.9061585 113.8001314  44.0792675  68.1734777
 113.8128544  44.3706188  69.6590186 113.5527149  46.3321955  62.9257470
 112.7164461  46.6696641  63.2466745 113.4131919  46.1970934  61.9884607
 115.5280230  41.1758742  67.6336654 114.8744642  40.8607760  67.0093269
 115.4860704  40.5534483  68.3596477 108.3867838  49.2796146  68.0529138
 108.1892238  48.6865507  67.3280205 107.8314502  48.9748357  68.7705077
 114.3056922  47.7896313  67.9314110 113.4924787  48.0890483  68.3379303
 114.8015916  47.3952001  68.6488593 113.7970997  45.3614668  73.5475345
 114.4370376  45.2203427  72.8498309 112.9648527  45.0749182  73.1713947
 114.5731301  54.6617099  69.6610338 115.3671899  54.1667419  69.4592913
 113.8622993  54.1334962  69.2978043 110.8814064  48.8060180  65.7370090
 109.9511652  48.7444636  65.9540053 110.9771536  48.2836133  64.9406732
 110.7999613  45.3314993  68.3248332 111.0606430  46.2460326  68.2157493
 111.6216785  44.8639436  68.4744945 112.2724538  46.7452750  75.4947157
 112.9447592  46.5370113  74.8459806 111.4454325  46.5474836  75.0552389
 112.6752036  50.0195353  76.2549594 112.5371834  49.2875592  76.8561133
 113.5856959  49.9304253  75.9733782 114.0163270  46.7180531  77.5628913
 113.4800627  46.2671269  78.2150509 113.4279979  46.8526439  76.8199377
 112.3111814  63.4844580  71.4573572 112.5508412  64.1163104  72.1352590
 111.4681010  63.1332620  71.7438931 113.4265529  46.1769182  60.1255377
 112.5494996  46.0557983  59.7617623 113.9023282  45.3855260  59.8734265
 104.9467669  50.9646342  70.2196884 105.6338709  50.6508072  69.6317899
 104.7915798  51.8687706  69.9464135 109.7502392  45.8536538  74.6481907
 109.6660580  45.2462208  73.9132317 108.9285098  46.3445557  74.6491404
 114.3350273  56.9404980  76.8378805 115.0359732  57.5741463  76.9908199
 113.8645388  57.2819711  76.0774444 109.9317991  56.4741335  73.7709908
 110.5171428  55.7285023  73.9037812 109.7342829  56.7845292  74.6546572
 112.7856646  59.5092582  68.7872350 112.1167021  59.9938710  68.3036390
 112.6469516  59.7561803  69.7015729 104.5235646  49.0446935  72.4914351
 104.5619745  48.5110526  73.2851469 104.0175938  48.5182141  71.8725328
 111.9026408  43.8911476  75.9876893 111.9667734  44.7526306  75.5754291
 111.8393528  43.2785477  75.2549252 111.3778680  45.9634608  79.6349927
 112.0050719  45.5811685  80.2487452 110.5206599  45.7448810  80.0005620
 108.1544223  47.7711037  65.5668282 108.4497664  46.8621716  65.5135336
 107.2532259  47.7498777  65.2449285 111.6838470  45.8467034  71.5495831
 110.9625056  46.4603002  71.4103304 112.4731726  46.3824799  71.4712477
 114.4864784  43.1821460  77.8236483 115.0099185  43.4283757  78.5862792
 114.2677117  44.0141495  77.4039620 109.8832065  45.4525135  65.6907607
 109.5544771  44.5722514  65.5082713 110.2371435  45.3972804  66.5783997
 112.9973888  45.7398105  66.0583085 113.3369960  46.2684026  65.3361693
 113.4446008  46.0778511  66.8341652 115.6917329  44.1235155  75.5086153
 115.3514149  43.3242968  75.9106833 114.9856335  44.4236866  74.9362986
 114.9842035  44.2372726  64.2576378 115.7050398  44.6153979  63.7540095
 114.3607339  44.9561603  64.3611356 113.8672379  47.9003588  71.7705455
 113.7216960  48.2143892  72.6629736 113.3897583  48.5188489  71.2176353
 108.3418041  50.4408933  74.7093116 107.7971510  51.2168741  74.8413390
 109.2197391  50.7879737  74.5512237 115.1305658  43.7720517  67.0873914
 115.2521569  42.8437163  67.2864802 114.8407700  43.7859203  66.1752230
 109.1284063  49.5678829  77.6023273 108.3865799  49.7161464  78.1887903
 108.8076808  49.8287095  76.7390022 109.5740677  57.4544258  69.6333667
 110.3998697  57.1548030  69.2532311 109.2234729  56.6851880  70.0823456
 114.5422210  56.8070726  71.7031341 113.9202219  56.1441431  71.4033569
 115.2127077  56.8331858  71.0204989 107.7749282  55.3730584  70.5922601
 106.9381190  54.9452759  70.4106602 107.7472927  55.5663028  71.5293392
 114.6146738  45.2852514  81.2963847 114.6634893  46.1614637  80.9141617
 115.1569252  44.7429907  80.7235490 114.1035717  55.3574649  65.1789802
 114.2523837  56.0410114  64.5256474 114.9102161  55.3379739  65.6939257
 111.8588350  51.3839827  66.1850870 111.6134392  50.4802157  66.3831081
 112.0284265  51.3856978  65.2430348 111.1283998  47.1168185  63.6837032
 110.4353243  47.1912540  63.0277068 110.8835749  46.3528528  64.2058549
 107.0898779  48.4339932  70.3771533 106.7701563  47.5805241  70.0845907
 106.5432207  48.6488511  71.1329500 110.8678686  51.1502373  74.0941040
 111.0864696  52.0819481  74.1129073 111.2804460  50.7910348  74.8795843
 115.7406551  46.7235579  83.4843789 115.6403278  47.6729936  83.4155880
 115.5228094  46.3953818  82.6119859 114.9419623  43.9720504  60.0684466
 115.8038787  44.2975403  60.3280283 115.1269967  43.1852000  59.5557532
 106.9587039  52.0542844  72.3464655 106.2650510  51.6396797  71.8334609
 107.7060030  52.0963380  71.7498074 115.6037822  50.1532718  82.3008850
 115.1204903  50.9533078  82.5072739 115.6898761  50.1640663  81.3476294
 108.8723781  51.9861098  70.2230670 108.8494469  52.0848785  69.2712553
 109.1824418  52.8326248  70.5447836 111.5311159  54.0437253  74.3377284
 112.4854413  54.0121195  74.2707216 111.3323683  53.5827876  75.1527510
 112.1210541  52.6138369  76.9048082 112.9403430  53.1082447  76.9282919
 112.3947349  51.6970337  76.8765649 109.8861388  59.5856872  71.3547482
 109.7515856  58.8257273  70.7885480 109.4693450  60.3097772  70.8876271
 113.0430514  60.4826189  71.5665925 112.9262898  61.4271622  71.4644615
 112.2222960  60.1799751  71.9551724 107.3745455  46.9476503  77.6040279
 108.0204319  46.4375457  78.0927504 107.1662606  47.6845184  78.1783704
 114.0685028  61.1354451  74.7821853 114.9712275  61.1678061  75.0988348
 113.8422398  60.2054902  74.7968189 111.7142946  44.0944120  81.7015293
 112.5774408  43.7380925  81.9118618 111.1408357  43.7558015  82.3890697
 115.3629400  64.3738853  72.4914351 115.4013500  63.8402443  73.2851469
 114.8569693  63.8474058  71.8725328  90.6324306   9.8322867  58.1818878
  90.8720904  10.4641391  58.8597897  89.7893503   9.4810907  58.4684237
 102.5480338  13.8787168  55.1581416 101.9845203  13.7877105  54.3897704
 102.4332733  13.0587072  55.6383909 100.0944769  15.3738359  57.9965637
 100.8866061  15.0329184  57.5811936 100.3341420  15.4833334  58.9167790
 108.1279896  17.5458136  50.4695881 107.4767876  18.1312216  50.0829895
 108.9224259  18.0764330  50.5290919 102.0535523  14.6347273  50.8683016
 102.8266399  14.0876260  50.7295891 102.4060922  15.4991522  51.0797477
 103.8920566  15.9623655  64.0749915 103.6010432  16.8669286  63.9596581
 104.5277550  16.0040183  64.7893984 109.6055161  15.2348567  51.0064865
 108.9700994  15.3083194  51.7185770 109.2752568  15.8242166  50.3283945
 108.8510451  15.6485070  61.0699709 108.5511174  16.5510109  60.9615516
 108.5061511  15.3817254  61.9220861  99.6631744  11.7432141  57.9380202
  99.7924125  11.9966620  58.8519614  98.9829195  12.3359849  57.6184857
 103.8331231  22.4129391  54.0370676 103.7555261  23.3637216  54.1159157
 103.2292874  22.0675263  54.6945603 105.9306949  14.8347449  55.8724546
 106.3945295  15.1135152  55.0829168 105.6663747  13.9330893  55.6897636
 102.8231030  14.3818930  58.8104309 103.3932387  14.8106199  58.1721793
 103.4139142  14.1001515  59.5088494 106.3921582  16.1043436  62.8897236
 106.4566015  16.5663844  63.7255407 105.6832506  15.4740801  63.0179545
 106.1069600  17.7711544  52.7576216 105.9715275  18.6163079  53.1861064
 106.6479412  17.9730821  51.9942150  99.5598997  15.2886982  53.3304141
 100.0723518  16.0830232  53.4809706 100.2121710  14.5913272  53.2637742
 101.3693882  18.4052738  55.4126894 101.5460510  19.3270703  55.2247878
 102.1650715  18.0911157  55.8421274 107.7338076  18.3935110  66.8876558
 107.2901930  17.6071489  66.5697463 108.3955290  18.5814261  66.2220449
 102.4925197  19.9230912  61.4137237 103.0432622  19.7947975  60.6414230
 101.6536673  20.2225801  61.0632129 109.8319314  18.6737910  64.9157959
 109.8137790  19.4946791  64.4238228 110.7539234  18.5491985  65.1408100
 106.2892368  16.1882040  65.7581468 106.8220705  15.4270328  65.5280776
 105.7606449  15.8955691  66.5005622  97.5247914  13.6175636  54.1063712
  98.3623136  14.0272644  53.8897419  97.7026182  12.6775078  54.0763905
 107.6545081  15.3168032  53.2700280 107.1266443  14.5820792  52.9573517
 107.1532584  16.0942709  53.0240248 108.7065760  21.8445750  49.1931939
 108.0327459  22.1477446  49.8016897 109.0931582  22.6474830  48.8437396
 112.2105182  16.8467427  54.5650410 111.7567509  16.0058337  54.6215601
 111.5799149  17.4828825  54.9025191 110.6538121  18.6843923  55.5000228
 110.9461096  19.2448981  54.7812594 111.1636742  18.9772484  56.2553388
 106.6762003  14.7769581  48.1347321 106.2381432  14.0605440  47.6752959
 107.4172443  15.0045696  47.5732413 105.6171747  19.4624275  56.5893682
 105.5747925  19.6885121  55.6602214 106.5334445  19.2287649  56.7379483
 103.7337547  16.3387304  56.3855644 104.5278146  15.8437624  56.1838219
 103.0229240  15.8105167  56.0223350 108.5532392  18.7205399  60.7368012
 108.6069414  19.2896335  61.5045728 107.6847173  18.8907284  60.3722049
 106.3108823  16.9116326  60.0653482 106.1719909  16.5435110  60.9379420
 105.5223420  17.4263965  59.8937439 106.9056975  22.0125422  51.4079018
 107.0808731  21.5413465  52.2224641 106.2189763  22.6391188  51.6360279
 107.8614038  16.2897928  57.4542319 107.5263871  16.2498698  58.3499969
 107.3617984  15.6242644  56.9812730 112.4527362  18.3452871  65.3885159
 112.3939908  17.6612091  64.7215742 112.8546880  19.0871861  64.9365785
 101.4718061  25.1614785  58.1818878 101.7114659  25.7933309  58.8597897
 100.6287257  24.8102825  58.4684237  94.1073916  12.6416547  56.9442190
  94.7944956  12.3278277  56.3563206  93.9522045  13.5457911  56.6709442
 105.9845922  20.9693907  60.5860382 105.9116094  21.7748879  61.0979687
 105.5423316  21.1685873  59.7608404 105.7735702  20.2065677  54.0963204
 104.9903224  20.7487357  54.1901428 106.4728447  20.7239657  54.4957445
 108.4444606  20.8680741  62.7418541 109.1572578  21.5028206  62.6694442
 107.9534635  20.9644607  61.9258543 103.4956520  18.6175185  63.5624112
 104.1965979  19.2511668  63.7153506 103.0251635  18.9589916  62.8019751
 111.6210915  16.9593135  51.8472019 111.8970759  16.8449729  52.7565893
 110.7515414  16.5610619  51.8084192 108.2564979  21.2079485  55.4904832
 108.4387374  20.3901141  55.9532585 109.0797965  21.4247178  55.0529722
 108.5907145  20.1347670  52.7519881 109.1194911  19.6240125  52.1390043
 108.8535364  19.8190201  53.6165414  99.0924238  18.1511540  60.4955214
  99.6777674  17.4055228  60.6283119  98.8949076  18.4615496  61.3791878
 101.9462893  21.1862787  55.5117657 101.2773268  21.6708915  55.0281697
 101.8075762  21.4332008  56.4261035  93.6841892  10.7217140  59.2159658
  93.7225992  10.1880731  60.0096776  93.1782185  10.1952346  58.5970635
 106.0868161  23.2206531  62.1100315 106.6386469  23.3838152  62.8749400
 106.4274355  23.8110969  61.4380340 110.9379036  18.0467788  67.9648970
 111.4818940  18.6597746  67.4703924 110.3565881  18.6047367  68.4815983
 109.2236549  21.1688506  59.0963997 109.0987688  20.3678246  58.5874943
 109.8815640  21.6634700  58.6077967 111.2871457  18.9697526  60.7243547
 110.3401793  18.8502877  60.6521874 111.6354230  18.0820024  60.8069809
 108.2917890  18.7650243  56.9247900 108.1442853  17.8366950  57.1055470
 109.1171384  18.7870333  56.4404975 111.8952012  19.5878801  58.0112772
 112.8198560  19.3821663  57.8737223 111.7267316  19.3395202  58.9202114
 111.6847328  20.1064469  53.3674864 111.8584206  19.5410891  52.6148716
 112.1776220  20.9065364  53.1854354  97.5024288  12.1179138  61.4338423
  96.9577756  12.8938946  61.5658697  98.3803638  12.4649942  61.2757544
 112.6722501  19.4231233  50.4671762 113.3673406  20.0437926  50.6859077
 113.0145651  18.5726584  50.7424140  98.2890310  11.2449034  64.3268579
  97.5472046  11.3931669  64.9133210  97.9683054  11.5057300  63.4635329
 106.2333973  20.7865012  64.1248969 106.5421099  20.5414159  64.9971669
 107.0309455  20.9911651  63.6367840 106.2554585  22.9402922  56.3554346
 105.8159575  22.4479301  57.0487203 107.0062702  22.3975890  56.1146421
  98.7346924  19.1314463  56.3578974  99.5604944  18.8318235  55.9777618
  98.3840976  18.3622085  56.8068763 103.7028457  18.4840931  58.4276648
 103.0808466  17.8211636  58.1278876 104.3733324  18.5102063  57.7450295
  96.9355529  17.0500789  57.3167908  96.0987437  16.6222964  57.1351909
  96.9079174  17.2433233  58.2538699 114.2607830  17.5063842  67.3010291
 113.4703374  17.4887981  66.7614790 114.0241185  18.0452136  68.0559327
 103.2641964  17.0344854  51.9035108 103.4130084  17.7180319  51.2501781
 104.0708407  17.0149944  52.4184564 101.0194597  13.0610032  52.9096177
 100.7740639  12.1572362  53.1076387 101.1890511  13.0627182  51.9675655
 106.7637369  19.5292985  49.3746856 106.1911336  20.1483172  48.9217328
 107.3370163  20.0792346  49.9086778 109.9834629  19.8130135  50.5055438
 110.9165302  19.7475697  50.7088313 109.8957842  20.6486402  50.0469971
 112.6122646  19.1296005  47.4659386 112.5336277  18.7955869  48.3595143
 113.4332313  19.6217773  47.4650858 100.0284933  12.8272578  60.8186346
 100.2470943  13.7589686  60.8374380 100.4410707  12.4680553  61.6041150
  96.1193285  13.7313049  59.0709961  95.4256757  13.3167002  58.5579916
  96.8666276  13.7733585  58.4743380  98.0330028  13.6631303  56.9475976
  98.0100716  13.7618990  55.9957859  98.3430664  14.5096453  57.2693142
 100.6917406  15.7207458  61.0622591 101.6460659  15.6891400  60.9952522
 100.4929929  15.2598081  61.8772817 101.2816788  14.2908574  63.6293388
 102.1009677  14.7852652  63.6528226 101.5553596  13.3740542  63.6010956
  99.0467635  21.2627077  58.0792789  98.9122102  20.5027478  57.5130787
  98.6299697  21.9867977  57.6121577 110.1826598  16.4464001  47.0869364
 110.8862448  16.6514003  47.7027019 109.4589246  17.0140763  47.3518447
 102.2036760  22.1596394  58.2911231 102.0869145  23.1041827  58.1889921
 101.3829207  21.8569956  58.6797030 112.0913295  16.8846530  49.1367824
 112.9258899  16.4527728  48.9545299 111.9297638  16.7128544  50.0644718
 109.0605094  15.6927555  69.8277726 109.9296254  15.8668207  69.4664361
 108.5811846  16.5121972  69.7053455 103.2291275  22.8124656  61.5067160
 104.1318521  22.8448266  61.8233655 103.0028645  21.8825107  61.5213495
 104.9844877  21.5655643  58.1677238 104.0340508  21.5657504  58.0541611
 105.2877363  20.8188377  57.6513273 113.3874092  29.2079085  55.1581416
 112.8238957  29.1169022  54.3897704 113.2726487  28.3878990  55.6383909
 110.9338524  30.7030277  57.9965637 111.7259816  30.3621102  57.5811936
 111.1735174  30.8125252  58.9167790 112.8929278  29.9639190  50.8683016
 113.6660154  29.4168177  50.7295891 113.2454677  30.8283440  51.0797477
 114.7314320  31.2915573  64.0749915 114.4404186  32.1961203  63.9596581
 115.3671305  31.3332100  64.7893984 115.2295556  26.1231856  48.5001465
 115.4821076  25.6013378  47.7384928 114.2920115  25.9598002  48.6028149
 114.9491844  28.0259962  50.7025840 114.8328103  27.3504866  51.3706925
 115.0594104  27.5392336  49.8857993 113.1416687  27.4290785  57.1036413
 112.2167184  27.2966999  57.3114105 113.3901100  28.2085004  57.6006355
 110.5025498  27.0724059  57.9380202 110.6317879  27.3258537  58.8519614
 109.8222949  27.6651767  57.6184857 114.6724985  37.7421308  54.0370676
 114.5949015  38.6929134  54.1159157 114.0686629  37.3967181  54.6945603
 113.6624785  29.7110848  58.8104309 114.2326142  30.1398116  58.1721793
 114.2532897  29.4293433  59.5088494 114.1549951  24.8774275  67.0565320
 113.5248612  25.5590556  67.2900717 114.0486039  24.7657357  66.1118458
 109.4494924  24.5446071  57.9831244 108.6593978  24.8003600  57.5071355
 109.9406171  25.3594409  58.0883285 111.4009669  24.9090651  54.9414721
 110.6040832  25.0209345  55.4598217 111.1735261  25.2477303  54.0755611
 107.7332627  24.7976562  60.4146235 107.9840665  25.6823572  60.6803811
 108.2692175  24.6181163  59.6421327 113.4330694  19.1795041  69.4190571
 113.0397639  18.6261240  70.0938215 114.2496834  19.4905620  69.8097089
 110.3992752  30.6178899  53.3304141 110.9117272  31.4122150  53.4809706
 111.0515465  29.9205190  53.2637742 112.2087636  33.7344656  55.4126894
 112.3854265  34.6562620  55.2247878 113.0044470  33.4203075  55.8421274
 111.4939993  25.7809288  65.2889057 111.3793508  24.8794545  65.5896156
 110.6384511  26.0272984  64.9373874 113.3318952  35.2522830  61.4137237
 113.8826377  35.1239893  60.6414230 112.4930428  35.5517719  61.0632129
 108.3641668  28.9467554  54.1063712 109.2016890  29.3564562  53.8897419
 108.5419936  28.0066996  54.0763905 113.2257563  21.3079616  55.6306891
 113.8001315  21.0854798  54.8980084 113.8128546  21.3768311  56.3835492
 113.5527150  23.3384077  49.6502776 112.7164463  23.6758764  49.9712051
 113.4131920  23.2033057  48.7129913 115.5280231  18.1820865  54.3581961
 114.8744643  17.8669882  53.7338575 115.4860705  17.5596605  55.0841784
 108.3867840  26.2858269  54.7774445 108.1892239  25.6927630  54.0525512
 107.8314504  25.9810479  55.4950384 114.3056923  24.7958435  54.6559417
 113.4924789  25.0952606  55.0624609 114.8015917  24.4014124  55.3733899
 113.7970998  22.3676791  60.2720652 114.4370377  22.2265550  59.5743615
 112.9648528  22.0811304  59.8959254 114.5731302  31.6679221  56.3855644
 115.3671900  31.1729541  56.1838219 113.8622994  31.1397084  56.0223350
 110.8814065  25.8122303  52.4615397 109.9511653  25.7506758  52.6785359
 110.9771537  25.2898256  51.6652038 110.7999614  22.3377116  55.0493639
 111.0606432  23.2522449  54.9402799 111.6216787  21.8701558  55.1990252
 112.2724540  23.7514873  62.2192463 112.9447593  23.5432235  61.5705112
 111.4454326  23.5536959  61.7797696 112.6752037  27.0257476  62.9794900
 112.5371835  26.2937715  63.5806440 113.5856960  26.9366376  62.6979088
 114.0163272  23.7242653  64.2874220 113.4800629  23.2733392  64.9395816
 113.4279980  23.8588562  63.5444684 112.3111815  40.4906702  58.1818878
 112.5508413  41.1225227  58.8597897 111.4681012  40.1394742  58.4684237
 113.4265531  23.1831305  46.8500683 112.5494997  23.0620105  46.4862930
 113.9023284  22.3917383  46.5979572 104.9467671  27.9708464  56.9442190
 105.6338711  27.6570194  56.3563206 104.7915799  28.8749829  56.6709442
 109.7502393  22.8598661  61.3727214 109.6660582  22.2524330  60.6377624
 108.9285099  23.3507679  61.3736710 114.3350274  33.9467102  63.5624112
 115.0359733  34.5803585  63.7153506 113.8645389  34.2881834  62.8019751
 109.9317992  33.4803457  60.4955214 110.5171429  32.7347145  60.6283119
 109.7342831  33.7907414  61.3791878 112.7856647  36.5154705  55.5117657
 112.1167023  37.0000832  55.0281697 112.6469517  36.7623925  56.4261035
 104.5235647  26.0509058  59.2159658 104.5619746  25.5172648  60.0096776
 104.0175940  25.5244263  58.5970635 111.9026409  20.8973598  62.7122200
 111.9667736  21.7588429  62.2999598 111.8393529  20.2847600  61.9794558
 111.3778682  22.9696731  66.3595234 112.0050720  22.5873808  66.9732758
 110.5206600  22.7510933  66.7250927 108.1544224  24.7773160  52.2913589
 108.4497665  23.8683838  52.2380643 107.2532260  24.7560899  51.9694591
 111.6838471  22.8529156  58.2741138 110.9625057  23.4665124  58.1348611
 112.4731727  23.3886921  58.1957783 114.4864785  20.1883583  64.5481789
 115.0099187  20.4345879  65.3108099 114.2677118  21.0203618  64.1284927
 109.8832066  22.4587257  52.4152914 109.5544772  21.5784636  52.2328020
 110.2371437  22.4034926  53.3029303 112.9973889  22.7460227  52.7828392
 113.3369962  23.2746149  52.0607000 113.4446010  23.0840633  53.5586958
 115.6917330  21.1297278  62.2331460 115.3514150  20.3305091  62.6352140
 114.9856336  21.4298989  61.6608293 114.9842036  21.2434849  50.9821684
 115.7050399  21.6216102  50.4785401 114.3607340  21.9623726  51.0856662
 113.8672381  24.9065711  58.4950761 113.7216961  25.2206014  59.3875043
 113.3897584  25.5250611  57.9421660 108.3418043  27.4471055  61.4338423
 107.7971511  28.2230863  61.5658697 109.2197393  27.7941860  61.2757544
 115.1305659  20.7782639  53.8119221 115.2521571  19.8499286  54.0110109
 114.8407702  20.7921325  52.8997537 109.1284065  26.5740952  64.3268579
 108.3865801  26.7223587  64.9133210 108.8076809  26.8349217  63.4635329
 109.5740678  34.4606380  56.3578974 110.3998698  34.1610152  55.9777618
 109.2234730  33.6914003  56.8068763 114.5422211  33.8132849  58.4276648
 113.9202221  33.1503554  58.1278876 115.2127078  33.8393981  57.7450295
 107.7749283  32.3792707  57.3167908 106.9381192  31.9514881  57.1351909
 107.7472929  32.5725150  58.2538699 114.6146739  22.2914637  68.0209154
 114.6634894  23.1676760  67.6386923 115.1569253  21.7492030  67.4480797
 114.1035718  32.3636772  51.9035108 114.2523839  33.0472236  51.2501781
 114.9102162  32.3441862  52.4184564 111.8588351  28.3901950  52.9096177
 111.6134393  27.4864280  53.1076387 112.0284266  28.3919100  51.9675655
 111.1283999  24.1230307  50.4082339 110.4353244  24.1974662  49.7522375
 110.8835751  23.3590651  50.9303856 107.0898780  25.4402055  57.1016840
 106.7701564  24.5867363  56.8091214 106.5432208  25.6550633  57.8574807
 110.8678687  28.1564496  60.8186346 111.0864697  29.0881604  60.8374380
 111.2804461  27.7972470  61.6041150 115.7406553  23.7297702  70.2089095
 115.6403280  24.6792059  70.1401186 115.5228095  23.4015941  69.3365165
 114.9419624  20.9782627  46.7929773 115.8038788  21.3037525  47.0525590
 115.1269968  20.1914123  46.2802838 106.9587040  29.0604967  59.0709961
 106.2650511  28.6458919  58.5579916 107.7060031  29.1025503  58.4743380
 115.6037823  27.1594841  69.0254157 115.1204904  27.9595201  69.2318046
 115.6898762  27.1702785  68.0721601 108.8723782  28.9923220  56.9475976
 108.8494471  29.0910908  55.9957859 109.1824419  29.8388371  57.2693142
 111.5311160  31.0499375  61.0622591 112.4854414  31.0183318  60.9952522
 111.3323684  30.5889999  61.8772817 112.1210542  29.6200491  63.6293388
 112.9403431  30.1144570  63.6528226 112.3947350  28.7032459  63.6010956
 109.8861389  36.5918995  58.0792789 109.7515857  35.8319396  57.5130787
 109.4693451  37.3159895  57.6121577 113.0430515  37.4888312  58.2911231
 112.9262899  38.4333744  58.1889921 112.2222961  37.1861873  58.6797030
 107.3745457  23.9538625  64.3285585 108.0204320  23.4437579  64.8172811
 107.1662608  24.6907307  64.9029011 114.0685029  38.1416574  61.5067160
 114.9712276  38.1740184  61.8233655 113.8422399  37.2117025  61.5213495
 111.7142948  21.1006242  68.4260600 112.5774409  20.7443047  68.6363924
 111.1408358  20.7620137  69.1136004 115.3629401  41.3800975  59.2159658
 115.4013501  40.8464566  60.0096776 114.8569694  40.8536181  58.5970635
 112.3111816  17.4968825  44.9064185 112.5508415  18.1287349  45.5843203
 111.4681013  17.1456865  45.1929544 115.3629403  18.3863098  45.9404964
 115.4013502  17.8526689  46.7342082 114.8569695  17.8598303  45.3215941
  25.8972604  57.4525804 113.8432849  25.8186235  57.1185668 114.7368607
  26.7182270  57.9447572 113.8424322  32.2523609  71.1979852 116.8469345
  31.6011588  71.7833932 116.4603359  33.0467971  71.7286047 116.9064382
  26.1779236  68.2868989 117.2456479  26.9510112  67.7397976 117.1069355
  26.5304635  69.1513238 117.4570941  28.5145514  64.4461655 114.8774929
  28.7671034  63.9243176 114.1158392  27.5770073  64.2827801 114.9801613
  33.7298874  68.8870284 117.3838329  33.0944707  68.9604910 118.0959234
  33.3996280  69.4763883 116.7057408  28.2341802  66.3489761 117.0799304
  28.1178060  65.6734664 117.7480388  28.3444062  65.8622135 116.2631457
  30.2178830  60.8389808 115.7807342  30.3853233  61.7070044 116.1477813
  30.0275999  61.0017090 114.8568631  30.1968051  63.2947465 116.7654009
  30.0767676  63.7404516 117.6039489  29.5020639  63.6432783 116.2067547
  35.8953117  63.7668939 117.5934343  36.8070973  63.9996325 117.4182040
  35.3862764  64.3505983 117.0309421  38.3811931  69.6849195 122.3392288
  37.6962970  70.0648096 121.7889321  38.4655781  70.2944521 123.0724236
  30.0550661  68.4869165 122.2498009  30.5189007  68.7656868 121.4602632
  29.7907460  67.5852610 122.0671100  28.9919547  64.6092317 119.0587574
  29.6943591  65.0613361 119.5261501  28.6600176  63.9676136 119.6867468
  44.8414684  66.5519858 123.4594960  44.0878392  65.9827256 123.3038965
  44.9762225  66.5182522 124.4065595  30.2313312  71.4233260 119.1349680
  30.0958987  72.2684796 119.5634527  30.7723125  71.6252538 118.3715613
  33.5456058  64.9372433 116.1721008  33.0302682  65.7077038 116.4109396
  33.2733367  64.2637569 116.7954070  38.5190333  67.6904788 118.1074182
  37.7419775  67.3515947 117.6629344  39.1981813  67.6957411 117.4329147
  33.3342362  62.8099525 117.9980789  33.0292497  63.1245674 118.8490933
  34.2872804  62.8880945 118.0408122  31.7788793  68.9689748 119.6473743
  31.2510155  68.2342508 119.3346981  31.2776296  69.7464425 119.4013712
  36.7581639  67.1638769 124.7640790  36.1005314  67.8538030 124.8520918
  37.5622039  67.5535201 125.1074776  35.5687098  65.5183142 122.8144731
  36.0818980  66.1513133 123.3166441  36.2188322  64.9184337 122.4488091
  26.8377108  61.6613876 116.0276240  26.0014420  61.9988562 116.3485515
  26.6981878  61.5262856 115.0903377  29.9241394  66.7869959 112.6508716
  29.0168455  66.5559212 112.8499865  30.4212426  65.9907578 112.8382698
  32.8309472  75.4967466 115.5705403  32.1571171  75.7999163 116.1790360
  33.2175294  76.2996546 115.2210860  32.8302977  64.3924013 120.1905752
  33.5774796  64.9045410 119.8812874  33.0994566  64.0708066 121.0510146
  31.1029627  66.8882554 117.1732707  30.1940846  66.6041586 117.2705176
  31.1324711  67.3081632 116.3136013  36.3348894  70.4989143 120.9423874
  35.8811222  69.6580053 120.9989065  35.7042861  71.1350541 121.2798654
  34.7781834  72.3365640 121.8773692  35.0704808  72.8970697 121.1586058
  35.2880454  72.6294201 122.6326851  30.8005715  68.4291297 114.5120785
  30.3625145  67.7127156 114.0526422  31.5416156  68.6567412 113.9505876
  38.9178830  66.7048494 120.5697104  38.7796728  66.8950090 119.6418293
  38.5615048  67.4667877 121.0265155  38.9448209  68.7725021 125.5808375
  39.3784716  68.6800310 126.4291429  39.6579790  68.7482522 124.9428391
  31.0300688  75.6647138 117.7852482  31.2052443  75.1935182 118.5998104
  30.3433476  76.2912905 118.0133742  34.9216942  67.2875679 114.1052843
  34.3046113  66.5622507 114.0085895  34.4533431  68.0485039 113.7619917
  26.7115488  61.5061103 113.2274147  25.8344955  61.3849904 112.8636394
  27.1873241  60.7147182 112.9753036  41.0605822  65.3722389 124.7589164
  41.0495698  66.2547104 124.3883097  40.1923201  65.0193939 124.5643701
  34.2905845  68.4253710 120.6909296  33.3562124  68.5455173 120.5214001
  34.4682514  67.5226177 120.4269306  37.6778397  64.2671030 121.2259330
  38.1438849  65.0999021 121.1519633  38.1285897  63.8016011 121.9304589
  35.7454628  70.6114851 118.2245482  36.0214472  70.4971445 119.1339357
  34.8759126  70.2132336 118.1857656  32.7150857  73.7869387 119.1293345
  33.2438624  73.2761841 118.5163507  32.9779077  73.4711917 119.9938878
  36.0195724  73.2400518 124.3886236  36.9442272  73.0343379 124.2510687
  35.8511028  72.9916919 125.2975578  32.4123117  60.2709796 118.2953481
  32.6286731  61.1534434 117.9942309  31.9317184  59.8796010 117.5659123
  35.8091041  73.7586185 119.7448328  35.9827918  73.1932607 118.9922180
  36.3019932  74.5587080 119.5627817  41.6630432  66.5222608 121.3638627
  42.1061578  65.7729933 120.9657751  40.7856942  66.5132744 120.9812359
  36.7966213  73.0752949 116.8445226  37.4917118  73.6959642 117.0632540
  37.1389363  72.2248301 117.1197604  38.6957636  70.5252655 118.3732557
  39.2208960  70.8639928 117.6481877  38.6079989  69.5899670 118.1895691
  27.3885676  70.6866571 118.2808572  27.5373796  71.3702035 117.6275245
  28.1952120  70.6671661 118.7958028  41.2063297  67.9927846 123.7561075
  42.0410188  68.4317650 123.9198635  41.3422425  67.5166499 122.9369321
  30.8881082  73.1814701 115.7520319  30.3155049  73.8004888 115.2990791
  31.4613875  73.7314063 116.2860241  34.1078341  73.4651851 116.8828902
  35.0409015  73.3997413 117.0861777  34.0201554  74.3008118 116.4243434
  36.7366358  72.7817722 113.8432849  36.6579990  72.4477585 114.7368607
  37.5576025  73.2739489 113.8424322  31.2727880  64.5175514 113.0936372
  32.2186985  64.3881722 113.1624790  30.8942125  63.7790176 113.5705800
  45.2521099  66.7095468 126.1915205  45.9824488  66.4480756 126.7522908
  44.6428045  65.9724190 126.2317273  29.4570797  62.4425490 113.0291257
  28.5502253  62.1458603 113.1053971  29.7346778  62.1455308 112.1625543
  28.2269582  59.3012425 113.1703236  29.0888746  59.6267324 113.4299054
  28.4119926  58.5143921 112.6576302  35.1627096  60.3341042 119.3694808
  34.2752951  60.6190693 119.1515002  35.5781085  60.1734806 118.5222084
  34.3070310  70.0985717 113.4642828  35.0106160  70.3035719 114.0800483
  33.5832959  70.6662479 113.7291911  35.1368120  65.8495578 119.5845098
  35.0803322  66.3064130 118.7452730  35.6896463  65.0886263 119.4067940
  38.9472926  61.6385310 120.4095217  38.6909860  61.2381946 121.2403425
  38.3225794  62.3529104 120.2845356  43.2585264  64.3781383 122.9166509
  42.6984822  64.4474573 123.6898071  42.6528767  64.2022368 122.1966005
  36.2157007  70.5368246 115.5141288  37.0502611  70.1049445 115.3318762
  36.0541350  70.3650260 116.4418182  35.8702899  67.0400359 116.8797627
  35.8151703  66.8744631 115.9386071  35.2448955  67.7476392 117.0359817
  43.0917363  86.5271770 116.8469345  42.4405343  87.1125850 116.4603359
  43.8861726  87.0577964 116.9064382  37.0172990  83.6160907 117.2456479
  37.7903866  83.0689894 117.1069355  37.3698389  84.4805156 117.4570941
  39.3539268  79.7753573 114.8774929  39.6064789  79.2535094 114.1158392
  38.4163827  79.6119718 114.9801613  44.5692628  84.2162201 117.3838329
  43.9338461  84.2896828 118.0959234  44.2390035  84.8055800 116.7057408
  39.0735557  81.6781679 117.0799304  38.9571815  81.0026582 117.7480388
  39.1837817  81.1914053 116.2631457  41.4167098  81.1391826 120.7845993
  41.0525305  80.6122447 121.4958915  42.2734214  80.7490295 120.6112479
  41.0572585  76.1681726 115.7807342  41.2246987  77.0361962 116.1477813
  40.8669754  76.3309007 114.8568631  41.0361806  78.6239383 116.7654009
  40.9161431  79.0696434 117.6039489  40.3414394  78.9724701 116.2067547
  46.7346872  79.0960856 117.5934343  47.6464728  79.3288243 117.4182040
  46.2256519  79.6797900 117.0309421  39.8313302  79.9384235 119.0587574
  40.5337345  80.3905279 119.5261501  39.4993930  79.2968054 119.6867468
  44.3849813  80.2664351 116.1721008  43.8696436  81.0368955 116.4109396
  44.1127121  79.5929487 116.7954070  41.9696924  75.1114052 121.2306247
  41.1138520  74.7220902 121.0511885  42.3823876  75.1906012 120.3706032
  39.7438956  72.7299125 124.6363988  40.6091953  72.5341933 124.2769878
  39.8116465  72.5009476 125.5633345  44.1736116  78.1391443 117.9980789
  43.8686252  78.4537592 118.8490933  45.1266558  78.2172863 118.0408122
  42.6182548  84.2981666 119.6473743  42.0903909  83.5634426 119.3346981
  42.1170051  85.0756342 119.4013712  37.3501275  74.9601332 122.0080355
  37.9245027  74.7376514 121.2753548  37.9372258  75.0290027 122.7608956
  37.6770863  76.9905793 116.0276240  36.8408175  77.3280480 116.3485515
  37.5375632  76.8554773 115.0903377  39.6523943  71.8342581 120.7355424
  38.9988356  71.5191599 120.1112039  39.6104417  71.2118322 121.4615247
  40.7635148  82.1161876 112.6508716  39.8562210  81.8851130 112.8499865
  41.2606180  81.3199496 112.8382698  43.6696731  79.7215931 120.1905752
  44.4168550  80.2337328 119.8812874  43.9388321  79.3999983 121.0510146
  41.9423381  82.2174471 117.1732707  41.0334601  81.9333504 117.2705176
  41.9718465  82.6373550 116.3136013  46.1175568  76.7573047 122.1724542
  45.3798325  76.2450433 122.5034784  46.3702342  76.3173428 121.3607818
  46.2187196  69.5349299 122.7666311  46.5246073  68.6746662 122.4792226
  46.9439801  70.1266919 122.5665305  41.6399469  83.7583215 114.5120785
  41.2018899  83.0419074 114.0526422  42.3809910  83.9859330 113.9505876
  38.4300635  78.4480152 121.0332881  37.6168501  78.7474322 121.4398073
  38.9259630  78.0535840 121.7507363  35.0057778  79.4644019 118.8388861
  34.0755366  79.4028475 119.0558823  35.1015250  78.9419972 118.0425502
  34.9243327  75.9898832 121.4267102  35.1850144  76.9044165 121.3176263
  35.7460499  75.5223275 121.5763715  45.7610697  82.6167597 114.1052843
  45.1439868  81.8914425 114.0085895  45.2927185  83.3776957 113.7619917
  37.5509243  76.8353021 113.2274147  36.6738709  76.7141822 112.8636394
  38.0266996  76.0439099 112.9753036  44.0469819  74.9973941 123.1170873
  44.5438519  74.2443903 122.7971943  43.2756800  75.0338257 122.5514082
  40.6304788  77.1391324 122.8442557  40.2602575  76.5862364 123.5323463
  41.1263880  76.5349457 122.2917557  32.2787937  78.4294876 118.6687053
  32.5741378  77.5205555 118.6154106  31.3775972  78.4082616 118.3468055
  34.0075778  76.1108974 118.7926378  33.6788484  75.2306353 118.6101484
  34.3615149  76.0556642 119.6802767  37.1217601  76.3981944 119.1601855
  37.4613674  76.9267865 118.4380464  37.5689722  76.7362350 119.9360422
  39.1085749  74.8956565 117.3595148  39.8294111  75.2737818 116.8558865
  38.4851053  75.6145442 117.4630126  43.2516871  75.6001714 118.2953481
  43.4680486  76.4826352 117.9942309  42.7710939  75.2087928 117.5659123
  39.8512476  75.5489975 124.9205115  39.8374044  74.6531069 124.5837413
  40.5684904  75.5560639 125.5543401  39.2549372  74.4304356 120.1892685
  39.3765283  73.5021002 120.3883572  38.9651414  74.4443042 119.2771000
  42.1240562  72.1159266 123.3259405  42.1462259  72.1798599 122.3711384
  42.5408621  71.2763775 123.5199911  38.2279431  86.0158488 118.2808572
  38.3767551  86.6993953 117.6275245  39.0345874  85.9963578 118.7958028
  35.9832064  82.0423666 119.2869641  35.7378106  81.1385996 119.4849851
  36.1527978  82.0440816 118.3449119  35.2527711  77.7752024 116.7855802
  34.5596956  77.8496379 116.1295838  35.0079463  77.0112367 117.3077319
  43.9241368  69.3347625 124.1895293  44.2043121  68.6670814 124.8155720
  44.7091975  69.5276720 123.6769957  41.7274836  88.5106619 115.7520319
  41.1548803  89.1296806 115.2990791  42.3007630  89.0605980 116.2860241
  47.5760113  88.1109639 113.8432849  47.4973744  87.7769503 114.7368607
  48.3969779  88.6031407 113.8424322  42.1121635  79.8467432 113.0936372
  43.0580739  79.7173640 113.1624790  41.7335880  79.1082093 113.5705800
  48.0843519  71.5123438 123.0563264  47.8868340  71.2038526 123.9406596
  48.6943225  72.2385076 123.1861194  40.2964552  77.7717408 113.0291257
  39.3896007  77.4750521 113.1053971  40.5740533  77.4747226 112.1625543
  41.9126617  72.3154298 119.1835498  41.1027346  71.9701383 119.5590744
  42.6011034  72.0061841 119.7723110  43.8417166  71.3932344 120.8059795
  44.3948204  71.8127798 121.4649818  44.0787252  70.4668093 120.8482751
  39.0663336  74.6304343 113.1703236  39.9282500  74.9559241 113.4299054
  39.2513681  73.8435839 112.6576302  47.2195973  73.5032870 120.3138459
  46.6394642  74.1617674 119.9316512  46.9531906  72.6810214 119.9025877
  45.6699539  72.9037927 122.5159780  46.1699318  73.0154462 121.7074098
  46.3135147  72.5998980 123.1560588  46.0020851  75.6632960 119.3694808
  45.1146706  75.9482611 119.1515002  46.4174840  75.5026723 118.5222084
  45.1464064  85.4277635 113.4642828  45.8499914  85.6327637 114.0800483
  44.4226713  85.9954397 113.7291911  45.9761875  81.1787496 119.5845098
  45.9197076  81.6356047 118.7452730  46.5290217  80.4178181 119.4067940
  49.7866681  76.9677228 120.4095217  49.5303615  76.5673863 121.2403425
  49.1619549  77.6821022 120.2845356  47.0550762  85.8660164 115.5141288
  47.8896366  85.4341362 115.3318762  46.8935105  85.6942178 116.4418182
  46.7096654  82.3692277 116.8797627  46.6545458  82.2036549 115.9386071
  46.0842709  83.0768310 117.0359817  40.0192779  71.8700386 116.4582945
  40.0071449  72.8142226 116.6151216  40.9116201  71.6870532 116.1642406
  43.8344899  68.4643163 120.7128882  43.0677295  67.9101650 120.8585564
  44.2455604  68.5365032 121.5743034  25.8972605  34.4587927 100.5678156
  25.8186236  34.1247790 101.4613914  26.7182272  34.9509694 100.5669628
  32.2523610  48.2041974 103.5714652  31.6011590  48.7896055 103.1848665
  33.0467973  48.7348169 103.6309689  26.1779237  45.2931112 103.9701786
  26.9510113  44.7460099 103.8314662  26.5304636  46.1575361 104.1816247
  28.5145515  41.4523778 101.6020236  28.7671035  40.9305299 100.8403699
  27.5770074  41.2889923 101.7046919  33.7298875  45.8932406 104.1083636
  33.0944708  45.9667033 104.8204540  33.3996281  46.4826005 103.4302715
  28.2341804  43.3551884 103.8044611  28.1178062  42.6796787 104.4725695
  28.3444063  42.8684258 102.9876764  30.2178831  37.8451930 102.5052649
  30.3853234  38.7132167 102.8723120  30.0276001  38.0079212 101.5813938
  30.1968052  40.3009588 103.4899315  30.0767678  40.7466639 104.3284796
  29.5020641  40.6494906 102.9312853  27.9574944  53.0713230 107.1389447
  27.8798974  54.0221055 107.2177927  27.3536588  52.7259102 107.7964373
  35.8953118  40.7731061 104.3179649  36.8070975  41.0058448 104.1427347
  35.3862766  41.3568105 103.7554728  38.3811933  46.6911317 109.0637595
  37.6962971  47.0710219 108.5134628  38.4655782  47.3006644 109.7969542
  30.0550663  45.4931288 108.9743316  30.5189008  45.7718991 108.1847938
  29.7907461  44.5914732 108.7916407  28.9919549  41.6154440 105.7832881
  29.6943592  42.0675484 106.2506807  28.6600177  40.9738259 106.4112774
  44.8414685  43.5581980 110.1840267  44.0878394  42.9889378 110.0284271
  44.9762226  43.5244645 111.1310902  30.2313313  48.4295383 105.8594986
  30.0958988  49.2746918 106.2879834  30.7723126  48.6314660 105.0960920
  23.6842711  45.9470821 106.4322911  24.1967231  46.7414071 106.5828476
  24.3365424  45.2497111 106.3656513  25.4937595  49.0636577 108.5145665
  25.6704224  49.9854542 108.3266648  26.2894429  48.7494996 108.9440044
  33.5456060  41.9434556 102.8966315  33.0302683  42.7139160 103.1354702
  33.2733368  41.2699692 103.5199376  38.5190334  44.6966910 104.8319488
  37.7419777  44.3578070 104.3874650  39.1981815  44.7019533 104.1574453
  33.3342363  39.8161648 104.7226096  33.0292498  40.1307797 105.5736239
  34.2872805  39.8943068 104.7653429  31.7788795  45.9751871 106.3719050
  31.2510156  45.2404631 106.0592287  31.2776297  46.7526547 106.1259018
  36.7581641  44.1700892 111.4886096  36.1005315  44.8600153 111.5766225
  37.5622040  44.5597323 111.8320083  35.5687099  42.5245264 109.5390038
  36.0818981  43.1575256 110.0411748  36.2188323  41.9246460 109.1733398
  26.8377109  38.6675998 102.7521547  26.0014422  39.0050685 103.0730822
  26.6981879  38.5324978 101.8148684  29.9241395  43.7932081  99.3754023
  29.0168457  43.5621335  99.5745172  30.4212427  42.9969701  99.5628005
  32.8309474  52.5029589 102.2950709  32.1571172  52.8061285 102.9035667
  33.2175296  53.3058669 101.9456166  32.8302978  41.3986135 106.9151059
  33.5774797  41.9107533 106.6058181  33.0994568  41.0770188 107.7755452
  31.1029628  43.8944676 103.8978013  30.1940848  43.6103709 103.9950483
  31.1324712  44.3143755 103.0381320  36.3348896  47.5051266 107.6669181
  35.8811223  46.6642176 107.7234371  35.7042862  48.1412664 108.0043961
  34.7781835  49.3427762 108.6018999  35.0704809  49.9032819 107.8831364
  35.2880455  49.6356323 109.3572158  30.8005716  45.4353420 101.2366092
  30.3625146  44.7189279 100.7771729  31.5416157  45.6629535 100.6751183
  29.7415460  50.1208113 109.6912452  29.6991639  50.3468960 108.7620984
  30.6578159  49.8871488 109.8398253  38.9178831  43.7110617 107.2942410
  38.7796729  43.9012213 106.3663600  38.5615050  44.4730000 107.7510461
  38.9448210  45.7787144 112.3053682  39.3784717  45.6862433 113.1536736
  39.6579791  45.7544644 111.6673698  27.8581261  46.9971142 109.4874415
  28.6521859  46.5021463 109.2856990  27.1472953  46.4689006 109.1242120
  31.0300689  52.6709261 104.5097788  31.2052445  52.1997304 105.3243411
  30.3433477  53.2975027 104.7379049  34.9216944  44.2937802 100.8298149
  34.3046114  43.5684630 100.7331202  34.4533432  45.0547162 100.4865224
  25.5961774  55.8198624 111.2837649  25.8358372  56.4517148 111.9616667
  24.7530971  55.4686664 111.5703008  26.7115490  38.5123226  99.9519454
  25.8344956  38.3912027  99.5881700  27.1873243  37.7209304  99.6998342
  29.8979416  50.8649516 107.1981974  29.1146938  51.4071196 107.2920199
  30.5972161  51.3823496 107.5976215  41.0605823  42.3784511 111.4834471
  41.0495699  43.2609227 111.1128404  40.1923203  42.0256062 111.2889008
  34.2905846  45.4315833 107.4154603  33.3562125  45.5517295 107.2459307
  34.4682515  44.5288300 107.1514613  37.6778398  41.2733152 107.9504637
  38.1438850  42.1061144 107.8764940  38.1285898  40.8078134 108.6549896
  35.7454629  47.6176973 104.9490789  36.0214473  47.5033568 105.8584663
  34.8759128  47.2194458 104.9102962  32.3808693  51.8663324 108.5923603
  32.5631087  51.0484980 109.0551355  33.2041679  52.0831017 108.1548493
  32.7150858  50.7931509 105.8538651  33.2438625  50.2823964 105.2408813
  32.9779078  50.4774040 106.7184184  26.0706606  51.8446626 108.6136427
  25.4016982  52.3292754 108.1300467  25.9319476  52.0915847 109.5279806
  33.3480262  51.8272345 112.1982768  33.2231402  51.0262085 111.6893713
  34.0059353  52.3218538 111.7096738  35.4115171  49.6281365 113.8262318
  34.4645506  49.5086716 113.7540644  35.7597944  48.7403863 113.9088579
  32.4161604  49.4234081 110.0266670  32.2686566  48.4950789 110.2074240
  33.2415097  49.4454172 109.5423745  36.0195726  50.2462640 111.1131543
  36.9442273  50.0405502 110.9755994  35.8511029  49.9979041 112.0220884
  32.4123118  37.2771919 105.0198787  32.6286733  38.1596557 104.7187615
  31.9317185  36.8858132 104.2904429  35.8091042  50.7648308 106.4693634
  35.9827919  50.1994730 105.7167487  36.3019933  51.5649202 106.2873124
  41.6630433  43.5284731 108.0883934  42.1061579  42.7792056 107.6903057
  40.7856943  43.5194867 107.7057666  36.7966214  50.0815072 103.5690532
  37.4917119  50.7021765 103.7877847  37.1389365  49.2310423 103.8442910
  38.6957638  47.5314778 105.0977863  39.2208962  47.8702050 104.3727183
  38.6079990  46.5961793 104.9140998  30.3798298  53.5986761 109.4573116
  29.9403289  53.1063140 110.1505973  31.1306415  53.0559728 109.2165192
  27.3885677  47.6928693 105.0053879  27.5373798  48.3764158 104.3520551
  28.1952121  47.6733783 105.5203334  41.2063298  44.9989969 110.4806381
  42.0410189  45.4379773 110.6443942  41.3422427  44.5228622 109.6614627
  30.8881083  50.1876824 102.4765626  30.3155050  50.8067011 102.0236098
  31.4613877  50.7376185 103.0105548  34.1078343  50.4713974 103.6074208
  35.0409016  50.4059536 103.8107084  34.0201555  51.3070241 103.1488741
  36.7366359  49.7879844 100.5678156  36.6579991  49.4539708 101.4613914
  37.5576026  50.2801612 100.5669628  31.2727881  41.5237636  99.8181679
  32.2186986  41.3943845  99.8870097  30.8942126  40.7852298 100.2951107
  45.2521100  43.7157590 112.9160511  45.9824489  43.4542878 113.4768215
  44.6428046  42.9786312 112.9562579  29.4570799  39.4487613  99.7536564
  28.5502254  39.1520726  99.8299277  29.7346780  39.1517431  98.8870850
  28.2269583  36.3074548  99.8948543  29.0888747  36.6329446 100.1544360
  28.4119927  35.5206044  99.3821609  35.1627098  37.3403165 106.0940114
  34.2752953  37.6252816 105.8760309  35.5781087  37.1796928 105.2467391
  34.3070311  47.1047840 100.1888134  35.0106161  47.3097842 100.8045790
  33.5832960  47.6724601 100.4537218  35.1368121  42.8557701 106.3090404
  35.0803323  43.3126252 105.4698037  35.6896464  42.0948385 106.1313247
  38.9472927  38.6447433 107.1340524  38.6909862  38.2444068 107.9648732
  38.3225795  39.3591227 107.0090663  43.2585265  41.3843506 109.6411815
  42.6984823  41.4536695 110.4143377  42.6528769  41.2084491 108.9211312
  26.3280474  52.8180233 111.3930002  26.2112858  53.7625666 111.2908692
  25.5072920  52.5153795 111.7815801  36.2157009  47.5430369 102.2386594
  37.0502612  47.1111567 102.0564069  36.0541351  47.3712382 103.1663489
  35.8702901  44.0462482 103.6042934  35.8151704  43.8806754 102.6631378
  35.2448956  44.7538515 103.7605123  29.1088590  52.2239481 111.2696009
  28.1584221  52.2241343 111.1560381  29.4121076  51.4772216 110.7532043
  44.8441284  58.0600020 112.3341771  45.4819694  57.9406767 111.6305111
  44.7262127  59.0080864 112.3929723  41.6530990  58.0127448 112.2703296
  41.3149501  57.8968513 111.3823831  42.5220758  57.6118613 112.2504302
  37.5117806  59.8662924 108.2600187  36.9482671  59.7752861 107.4916474
  37.3970201  59.0462829 108.7402679  42.1350773  59.1662300 118.2289501
  42.1239414  58.7715098 117.3570005  42.2971412  58.4328372 118.8223273
  35.0582238  61.3614116 111.0984407  35.8503529  61.0204941 110.6830706
  35.2978888  61.4709091 112.0186560  43.0917364  63.5333892 103.5714652
  42.4405344  64.1187973 103.1848665  43.8861727  64.0640087 103.6309689
  37.0172991  60.6223029 103.9701786  37.7903867  60.0752016 103.8314662
  37.3698390  61.4867279 104.1816247  38.8558034  61.9499412 117.1768685
  38.5647900  62.8545042 117.0615352  39.4915018  61.9915939 117.8912755
  39.7814241  59.3276260 113.7670045  40.3777813  59.1032282 113.0527008
  39.8389212  58.5861006 114.3695493  39.3539269  56.7815695 101.6020236
  39.6064790  56.2597217 100.8403699  38.4163828  56.6181841 101.7046919
  44.3982552  55.7851474 109.4094979  45.1845641  55.3670897 109.0585396
  44.6621256  56.6897566 109.5776627  44.5692629  61.2224324 104.1083636
  43.9338462  61.2958951 104.8204540  44.2390036  61.8117923 103.4302715
  49.7990979  55.7226707 110.3127958  50.5316151  55.1525924 110.5465787
  49.0430335  55.3348307 110.7534463  39.0735558  58.6843801 103.8044611
  38.9571816  58.0088705 104.4725695  39.1837818  58.1976175 102.9876764
  41.4167099  58.1453948 107.5091300  41.0525306  57.6184569 108.2204221
  42.2734215  57.7552417 107.3357785  47.3216400  49.4348281 114.7722566
  46.9899724  50.3043692 114.5483781  46.7262013  49.1184565 115.4516597
  41.0572586  53.1743848 102.5052649  41.2246988  54.0424085 102.8723120
  40.8669755  53.3371130 101.5813938  43.8147919  61.6360827 114.1718479
  43.5148642  62.5385866 114.0634286  43.4698979  61.3693010 115.0239632
  37.2660401  58.0874624 110.2055183  36.3410897  57.9550838 110.4132875
  37.5144814  58.8668843 110.7025126  47.2145063  54.1543367 111.8515916
  46.3061940  54.0858776 111.5574677  47.1632659  54.6315312 112.6797742
  41.0361807  55.6301506 103.4899315  40.9161432  56.0758556 104.3284796
  40.3414395  55.9786823 102.9312853  34.6269212  57.7307897 111.0398972
  34.7561593  57.9842376 111.9538384  33.9466663  58.3235605 110.7203627
  38.7968699  68.4005147 107.1389447  38.7192729  69.3512972 107.2177927
  38.1930343  68.0551020 107.7964373  41.2885929  55.5733013 119.7950813
  40.5119263  56.1326933 119.7853678  41.9276492  56.0589796 120.3165684
  49.0806709  52.3559806 113.6293790  48.4381090  52.6492339 112.9833585
  48.5761638  52.2412726 114.4346987  46.7346873  56.1022979 104.3179649
  47.6464729  56.3350366 104.1427347  46.2256520  56.6860023 103.7554728
  39.5432301  58.3818466 119.3568780  40.2846985  58.9203510 119.0803604
  38.8369286  59.0084755 119.5140332  45.0187641  60.5247607 117.9540942
  45.4270997  60.0830017 117.2095574  44.2964902  59.9500234 118.2075135
  41.3718711  55.4620213 115.3274499  42.2179906  55.8859627 115.4709148
  41.3117348  54.8053838 116.0213062  45.3416455  61.0848797 111.7093231
  44.7125318  61.2494511 111.0069299  44.9542117  61.4990407 112.4804195
  49.2205687  62.0203235 109.0637595  48.5356725  62.4002136 108.5134628
  49.3049536  62.6298562 109.7969542  44.5218156  53.1224582 116.9855673
  44.2779088  53.8766642 116.4489948  44.7978087  53.5009929 117.8202920
  46.4756619  59.6663194 115.6632938  46.6873514  60.3094954 114.9867319
  46.4286367  58.8325511 115.1954868  44.0782848  52.2781015 112.5669510
  43.2167327  52.5762268 112.8586248  44.1045282  52.4951414 111.6350543
  40.8944417  60.8223205 108.9743316  41.3582763  61.1010908 108.1847938
  40.6301215  59.9206650 108.7916407  37.7868498  60.3694687 111.9123079
  38.3569855  60.7981955 111.2740564  38.3776610  60.0877272 112.6107265
  39.8313303  56.9446358 105.7832881  40.5337347  57.3967401 106.2506807
  39.4993932  56.3030177 106.4112774  33.5738637  55.2029910 111.0850015
  32.7837691  55.4587439 110.6090125  34.0649885  56.0178248 111.1902055
  47.5902447  62.5435150 113.8355295  48.4119890  62.1415337 113.5537977
  47.5864850  62.4403384 114.7871411  35.5253383  55.5674490 108.0433491
  34.7284546  55.6793184 108.5616987  35.2978975  55.9061142 107.1774382
  41.3559050  62.0919193 115.9916006  41.4203483  62.5539600 116.8274178
  40.6469974  61.4616558 116.1198316  31.8576340  55.4560401 113.5165005
  32.1084379  56.3407411 113.7822581  32.3935889  55.2765002 112.7440097
  55.6808440  58.8873898 110.1840267  54.9272148  58.3181296 110.0284271
  55.8155981  58.8536563 111.1310902  41.0707068  63.7587300 105.8594986
  40.9352743  64.6038836 106.2879834  41.6116880  63.9606578 105.0960920
  34.5236465  61.2762738 106.4322911  35.0360986  62.0705989 106.5828476
  35.1759178  60.5789029 106.3656513  36.3331350  64.3928495 108.5145665
  36.5097978  65.3146459 108.3266648  37.1288183  64.0786914 108.9440044
  42.6975544  64.3810867 119.9895328  42.2539398  63.5947245 119.6716233
  43.3592758  64.5690017 119.3239219  37.4562665  65.9106668 114.5156007
  38.0070091  65.7823732 113.7433001  36.6174141  66.2101557 114.1650900
  44.7956782  64.6613667 118.0176730  44.7775258  65.4822548 117.5256999
  45.7176702  64.5367742 118.2426871  41.2529836  62.1757796 118.8600238
  41.7858173  61.4146084 118.6299546  40.7243918  61.8831448 119.6024393
  44.4199531  47.2817862 114.3893880  44.0763801  48.1719504 114.3132990
  44.7878494  47.0919520 113.5263465  32.4885382  59.6051393 107.2082482
  33.3260604  60.0148401 106.9916190  32.6663650  58.6650835 107.1782676
  44.3849814  57.2726473 102.8966315  43.8696438  58.0431078 103.1354702
  44.1127123  56.5991609 103.5199376  41.9696925  52.1176174 107.9551553
  41.1138521  51.7283025 107.7757192  42.3823877  52.1968135 107.0951339
  43.4996072  49.6522517 112.3543113  42.9960867  49.6152653 111.5410918
  43.7926679  50.5615260 112.4139770  39.7438958  49.7361247 111.3609295
  40.6091954  49.5404056 111.0015184  39.8116467  49.5071599 112.2878652
  49.3584088  60.0258828 104.8319488  48.5813531  59.6869987 104.3874650
  50.0375569  60.0311451 104.1574453  44.1736117  55.1453565 104.7226096
  43.8686253  55.4599715 105.5736239  45.1266559  55.2234985 104.7653429
  42.6182549  61.3043789 106.3719050  42.0903911  60.5696548 106.0592287
  42.1170052  62.0818465 106.1259018  47.5975395  59.4992809 111.4886096
  46.9399070  60.1892071 111.5766225  48.4015794  59.8889241 111.8320083
  37.3501277  51.9663455 108.7325662  37.9245029  51.7438637 107.9998855
  37.9372259  52.0352150 109.4854263  46.4080854  57.8537182 109.5390038
  46.9212736  58.4867174 110.0411748  47.0582078  57.2538377 109.1733398
  37.6770864  53.9967916 102.7521547  36.8408176  54.3342603 103.0730822
  37.5375634  53.8616896 101.8148684  39.6523944  48.8404704 107.4600731
  38.9988357  48.5253721 106.8357346  39.6104419  48.2180444 108.1860554
  40.7635149  59.1223999  99.3754023  39.8562211  58.8913252  99.5745172
  41.2606181  58.3261618  99.5628005  43.6703228  67.8321506 102.2950709
  42.9964927  68.1353203 102.9035667  44.0569050  68.6350587 101.9456166
  42.8861685  55.3286637 111.7848379  41.9684246  55.5501584 111.6270067
  43.3021828  55.4032948 110.9260086  43.6696733  56.7278053 106.9151059
  44.4168552  57.2399450 106.6058181  43.9388322  56.4062106 107.7755452
  41.9423383  59.2236594 103.8978013  41.0334602  58.9395627 103.9950483
  41.9718467  59.6435672 103.0381320  47.1742650  62.8343183 107.6669181
  46.7204977  61.9934093 107.7234371  46.5436617  63.4704582 108.0043961
  46.1175570  53.7635169 108.8969848  45.3798327  53.2512556 109.2280091
  46.3702343  53.3235551 108.0853125  45.6175589  64.6719680 108.6018999
  45.9098564  65.2324737 107.8831364  46.1274210  64.9648241 109.3572158
  46.2187197  46.5411421 109.4911617  46.5246074  45.6808785 109.2037533
  46.9439802  47.1329042 109.2910611  32.5111553  56.9442108 107.8793215
  32.3135953  56.3511469 107.1544282  31.9558217  56.6394318 108.5969154
  40.4908277  56.8365214 109.9987809  40.5456887  55.8839051 109.9230285
  39.6799479  56.9924654 110.4829107  41.6399471  60.7645338 101.2366092
  41.2018900  60.0481196 100.7771729  42.3809911  60.9921452 100.6751183
  38.4300637  55.4542274 107.7578187  37.6168502  55.7536445 108.1643380
  38.9259631  55.0597963 108.4752670  40.5809215  65.4500031 109.6912452
  40.5385393  65.6760877 108.7620984  41.4971913  65.2163406 109.8398253
  44.0274848  55.9184099 116.5893081  44.3824236  56.1455572 117.4487547
  44.6746980  56.2502475 115.9670337  49.7572585  59.0402535 107.2942410
  49.6190484  59.2304131 106.3663600  49.4008804  59.8021917 107.7510461
  37.9214711  53.0260630 113.3739422  38.5614091  52.8849389 112.6762386
  37.0892242  52.7395143 112.9978024  49.7841965  61.1079062 112.3053682
  50.2178472  61.0154351 113.1536736  50.4973546  61.0836562 111.6673698
  38.6975015  62.3263060 109.4874415  39.4915614  61.8313380 109.2856990
  37.9866708  61.7980923 109.1242120  43.5169860  64.7081156 113.8386782
  43.5706882  65.2772092 114.6064498  42.6484641  64.8783041 113.4740820
  35.0057779  56.4706142 105.5634167  34.0755367  56.4090597 105.7804130
  35.1015251  55.9482095 104.7670809  34.9243328  52.9960955 108.1512409
  35.1850145  53.9106288 108.0421570  35.7460500  52.5285397 108.3009022
  36.3968253  54.4098712 115.3211234  37.0691307  54.2016074 114.6723883
  35.5698040  54.2120798 114.8816466  50.6457515  61.1502762 114.8386567
  50.8393405  62.0548573 115.0845842  50.5458133  60.6910181 115.6725152
  42.2993825  51.0360653 117.3376895  41.6521740  51.7350602 117.2441371
  43.0694841  51.4696797 117.7053143  45.7072623  61.3009505 120.4127448
  45.5558130  61.0720057 119.4957532  45.6977303  62.2580106 120.4258793
  42.4757960  58.8741418 115.3973714  43.4050020  59.0252577 115.2242682
  42.0548990  58.9625439 114.5422361  41.2746291  62.8992082 113.1672252
  41.1357377  62.5310867 114.0398190  40.4860888  63.4139722 112.9956210
  41.8694443  68.0001179 104.5097788  42.0446199  67.5289222 105.3243411
  41.1827231  68.6266945 104.7379049  42.8251507  62.2773685 110.5561090
  42.4901339  62.2374455 111.4518740  42.3255452  61.6118401 110.0831500
  36.7995750  57.6841315 116.0813671  36.6615548  56.9521554 116.6825210
  37.7100674  57.5950215 115.7997859  45.7610698  59.6229719 100.8298149
  45.1439869  58.8976547 100.7331202  45.2927187  60.3839079 100.4865224
  39.4278051  57.3961274 115.5697350  40.1377670  56.7554466 115.5283969
  39.3847359  57.6474169 116.4923531  47.4164830  64.3328628 118.4903930
  47.3577376  63.6487848 117.8234513  47.8184348  65.0747618 118.0384556
  36.4355529  71.1490541 111.2837649  36.6752127  71.7809066 111.9616667
  35.5924725  70.7978581 111.5703008  37.5509244  53.8415143  99.9519454
  36.6738710  53.7203944  99.5881700  38.0266997  53.0501222  99.6998342
  47.4182237  62.2968211 116.7217909  46.5309016  61.9594133 116.8444308
  47.9880788  61.5651243 116.9586675  29.0711384  58.6292303 110.0460961
  29.7582424  58.3154033 109.4581976  28.9159513  59.5333668 109.7728212
  33.8746106  53.5182500 114.4745984  33.7904295  52.9108169 113.7396394
  33.0528813  54.0091518 114.4755481  40.9483391  66.9569664 113.6879153
  40.8753562  67.7624635 114.1998457  40.5060784  67.1561630 112.8627174
  40.7373170  66.1941434 107.1981974  39.9540692  66.7363114 107.2920199
  41.4365915  66.7115413 107.5976215  44.0469820  52.0036063 109.8416180
  44.5438520  51.2506026 109.5217250  43.2756802  52.0400380 109.2759389
  51.8999578  57.7076429 111.4834471  51.8889454  58.5901144 111.1128404
  51.0316957  57.3547980 111.2889008  43.4082074  66.8556498 115.8437311
  44.1210046  67.4903963 115.7713213  42.9172103  66.9520364 115.0277313
  45.1299601  60.7607751 107.4154603  44.1955880  60.8809213 107.2459307
  45.3076269  59.8580217 107.1514613  40.6304789  54.1453446 109.5687864
  40.2602577  53.5924487 110.2568770  41.1263881  53.5411580 109.0162864
  48.5172152  56.6025070 107.9504637  48.9832604  57.4353061 107.8764940
  48.9679653  56.1370051 108.6549896  38.4593988  64.6050941 116.6642882
  39.1603447  65.2387424 116.8172276  37.9889103  64.9465673 115.9038521
  46.5848383  62.9468891 104.9490789  46.8608227  62.8325486 105.8584663
  45.7152882  62.5486376 104.9102962  46.4888815  48.9705657 111.9895538
  45.5751895  49.2009884 112.1577745  46.9181916  49.0544101 112.8409571
  46.2595274  57.1595549 114.4895432  45.6066724  57.4071456 113.8347885
  46.6375653  56.3459687 114.1557910  43.2202447  67.1955242 108.5923603
  43.4024842  66.3776898 109.0551355  44.0435433  67.4122934 108.1548493
  43.5544613  66.1223427 105.8538651  44.0832379  65.6115882 105.2408813
  43.8172832  65.8065957 106.7184184  42.3082847  57.9015360 120.9761469
  41.6323484  57.8009489 121.6463845  43.1310480  57.7454574 121.4397467
  34.0561706  64.1387296 113.5973985  34.6415142  63.3930984 113.7301889
  33.8586544  64.4491253 114.4810649  36.9100361  67.1738544 108.6136427
  36.2410736  67.6584671 108.1300467  36.7713231  67.4207764 109.5279806
  28.6479360  56.7092897 112.3178428  28.6863460  56.1756487 113.1115546
  28.1419653  56.1828102 111.6989405  41.0505629  69.2082287 115.2119085
  41.6023937  69.3713909 115.9768171  41.3911823  69.7986725 114.5399110
  45.9016504  64.0343545 121.0667740  46.4456408  64.6473503 120.5722695
  45.3203349  64.5923123 121.5834753  32.2787938  55.4356999 105.3932359
  32.5741379  54.5267677 105.3399413  31.3775974  55.4144738 105.0713362
  44.1874017  67.1564263 112.1982768  44.0625156  66.3554003 111.6893713
  44.8453108  67.6510456 111.7096738  35.8082185  53.5112995 111.3759908
  35.0868771  54.1248963 111.2367381  36.5975441  54.0470760 111.2976554
  46.2508925  64.9573283 113.8262318  45.3039261  64.8378634 113.7540644
  46.5991698  64.0695781 113.9088579  34.0075780  53.1171096 105.5171684
  33.6788486  52.2368475 105.3346790  34.3615150  53.0618765 106.4048074
  43.2555358  64.7525999 110.0266670  43.1080321  63.8242707 110.2074240
  44.0808852  64.7746090 109.5423745  37.1217603  53.4044066 105.8847162
  37.4613675  53.9329987 105.1625770  37.5689723  53.7424472 106.6605729
  46.8589480  65.5754558 111.1131543  47.7836028  65.3697419 110.9755994
  46.6904784  65.3270959 112.0220884  39.8161043  51.7881117 115.3350230
  39.4757864  50.9888930 115.7370910  39.1100050  52.0882828 114.7627063
  40.4677515  48.8730429 113.7877553  41.2903585  48.3990908 113.6656444
  40.7115579  49.6520913 114.2876239  39.1085750  51.9018688 104.0840455
  39.8294112  52.2799941 103.5804172  38.4851054  52.6207565 104.1875433
  43.2516873  52.6063837 105.0198787  43.4680487  53.4888475 104.7187615
  42.7710940  52.2150050 104.2904429  37.9916094  55.5649550 111.5969532
  37.8460675  55.8789853 112.4893813  37.5141298  56.1834450 111.0440430
  39.8512477  52.5552098 111.6450421  39.8374046  51.6593191 111.3082719
  40.5684905  52.5622762 112.2788707  41.7038608  52.9889438 113.6903549
  41.4456385  53.9106509 113.6887879  41.1723648  52.5919873 114.3804013
  46.6484796  66.0940225 106.4693634  46.8221674  65.5286648 105.7167487
  47.1413688  66.8941120 106.2873124  32.4661756  58.1054894 114.5357193
  31.9215224  58.8814702 114.6677467  33.3441106  58.4525699 114.3776314
  39.2549373  51.4366478 106.9137991  39.3765284  50.5083124 107.1128879
  38.9651415  51.4505164 106.0016307  42.1240563  49.1221389 110.0504711
  42.1462260  49.1860722 109.0956691  42.5408622  48.2825897 110.2445217
  52.5024188  58.8576648 108.0883934  52.9455334  58.1083973 107.6903057
  51.6250698  58.8486785 107.7057666  47.6359969  65.4106990 103.5690532
  48.3310874  66.0313682 103.7877847  47.9783119  64.5602341 103.8442910
  49.5351392  62.8606695 105.0977863  50.0602716  63.1993968 104.3727183
  49.4473745  61.9253711 104.9140998  41.1971441  66.7740769 117.2267740
  41.5058567  66.5289916 118.0990439  41.9946923  66.9787407 116.7386610
  41.2192053  68.9278679 109.4573116  40.7797043  68.4355057 110.1505973
  41.9700170  68.3851646 109.2165192  33.6984392  65.1190219 109.4597744
  34.5242412  64.8193991 109.0796388  33.3478444  64.3497842 109.9087533
  38.6665925  64.4716688 111.5295418  38.0445934  63.8087393 111.2297646
  39.3370792  64.4977819 110.8469066  31.8992997  63.0376546 110.4186678
  31.0624905  62.6098720 110.2370679  31.8716642  63.2308989 111.3557469
  49.2245298  63.4939599 120.4029061  48.4340842  63.4763738 119.8633561
  48.9878653  64.0327893 121.1578098  49.3443173  60.3432065 117.7161790
  49.3941178  60.1782073 118.6577312  49.2357096  59.4759324 117.3259670
  38.2279432  63.0220611 105.0053879  38.3767552  63.7056075 104.3520551
  39.0345875  63.0025701 105.5203334  46.6346936  56.3262993 119.0321096
  47.5356798  56.1869458 118.7405094  46.7094910  56.4917448 119.9719274
  40.9689741  53.7029848 117.8774283  40.0993050  53.9963414 117.6056871
  41.2049221  54.2870293 118.5981546  50.8461370  62.7629007 117.9603811
  50.5546178  63.1258987 118.7967272  50.2333501  62.0496015 117.7817143
  52.0457052  60.3281887 110.4806381  52.8803944  60.7671691 110.6443942
  52.1816181  59.8520540 109.6614627  49.0948558  57.8861621 116.4283869
  49.5702680  58.0789268 115.6202721  48.1714124  57.9420807 116.1827253
  35.9832065  59.0485789 106.0114948  35.7378107  58.1448119 106.2095158
  36.1527979  59.0502939 105.0694426  43.6728775  49.9209465 115.3939703
  44.1910719  50.6570492 115.0686192  43.3183907  50.2273458 116.2286462
  35.2527712  54.7814146 103.5101109  34.5596957  54.8558501 102.8541145
  35.0079464  54.0174490 104.0322626  43.9241369  46.3409747 110.9140600
  44.2043123  45.6732937 111.5401026  44.7091976  46.5338843 110.4015264
  41.7274837  65.5168741 102.4765626  41.1548804  66.1358929 102.0236098
  42.3007631  66.0668103 103.0105548  47.7950227  54.7627381 114.6612175
  48.7467650  54.8625479 114.6824399  47.6253678  53.9705650 115.1710259
  45.8164607  51.8482965 114.8471576  45.2214539  52.1287977 114.1518064
  45.5314303  52.3376866 115.6188317  44.9472097  65.8005892 103.6074208
  45.8802770  65.7351453 103.8107084  44.8595310  66.6362158 103.1488741
  47.5760114  65.1171762 100.5678156  47.4973745  64.7831625 101.4613914
  48.3969781  65.6093530 100.5669628  50.2738305  57.9833501 113.7754474
  50.2414625  57.0449502 113.9614158  50.8838929  58.0617538 113.0420299
  42.1121636  56.8529554  99.8181679  43.0580741  56.7235762  99.8870097
  41.7335881  56.1144216 100.2951107  50.4232793  54.7744545 113.8212758
  49.9071842  53.9903001 113.6342687  51.3072742  54.4463261 113.9859277
  48.0843520  48.5185560 109.7808570  47.8868342  48.2100648 110.6651902
  48.6943226  49.2447199 109.9106500  56.0914855  59.0449508 112.9160511
  56.8218243  58.7834796 113.4768215  55.4821800  58.3078230 112.9562579
  54.1730152  57.1857371 113.5134962  53.4463316  57.0513336 112.9051454
  53.7577439  57.4934199 114.3191681  41.9960328  60.9047300 121.2782335
  42.9163338  61.0825899 121.4722382  41.9609911  59.9603346 121.1262035
  40.2964553  54.7779531  99.7536564  39.3896008  54.4812643  99.8299277
  40.5740534  54.4809349  98.8870850  31.2142493  56.0985894 110.2035610
  30.8945278  55.2451202 109.9109984  30.6675922  56.3134472 110.9593577
  34.9922401  58.8148335 113.9205117  35.2108411  59.7465443 113.9393150
  35.4048175  58.4556309 114.7059920  41.9126619  49.3216420 105.9080805
  41.1027347  48.9763505 106.2836051  42.6011036  49.0123964 106.4968417
  43.8417167  48.3994467 107.5305102  44.3948206  48.8189920 108.1895125
  44.0787253  47.4730215 107.5728058  39.0663338  51.6366466  99.8948543
  39.9282502  51.9621364 100.1544360  39.2513682  50.8497962  99.3821609
  31.0830753  59.7188805 112.1728732  30.3894225  59.3042758 111.6598686
  31.8303744  59.7609342 111.5762151  47.2195974  50.5094992 107.0383766
  46.6394643  51.1679796 106.6561818  46.9531907  49.6872337 106.6271183
  45.6699540  49.9100050 109.2405086  46.1699319  50.0216584 108.4319405
  46.3135148  49.6061103 109.8805895  32.9967496  59.6507059 110.0494747
  32.9738184  59.7494746 109.0976630  33.3068132  60.4972210 110.3711913
  35.6554874  61.7083214 114.1641361  36.6098127  61.6767157 114.0971293
  35.4567397  61.2473838 114.9791587  36.2454256  60.2784330 116.7312159
  37.0647145  60.7728409 116.7546996  36.5191064  59.3616298 116.7029726
  46.0020852  52.6695083 106.0940114  45.1146707  52.9544733 105.8760309
  46.4174841  52.5088846 105.2467391  49.3535388  52.6941604 109.8094453
  50.1295778  53.1838056 110.0819070  48.6283522  53.1199658 110.2666323
  51.7907947  53.4069223 110.8668394  52.3852438  53.1664959 110.1561702
  51.8634531  52.6876353 111.4941930  34.0105103  67.2502834 111.1811559
  33.8759571  66.4903235 110.6149557  33.5937165  67.9743734 110.7140348
  45.1464066  62.4339757 100.1888134  45.8499916  62.6389760 100.8045790
  44.4226714  63.0016519 100.4537218  45.9761876  58.1849619 106.3090404
  45.9197077  58.6418170 105.4698037  46.5290218  57.4240303 106.1313247
  49.7866682  53.9739350 107.1340524  49.5303616  53.5735986 107.9648732
  49.1619550  54.6883144 107.0090663  54.0979020  56.7135424 109.6411815
  53.5378578  56.7828613 110.4143377  53.4922523  56.5376408 108.9211312
  37.1674228  68.1472151 111.3930002  37.0506613  69.0917583 111.2908692
  36.3466675  67.8445712 111.7815801  47.0550763  62.8722286 102.2386594
  47.8896367  62.4403485 102.0564069  46.8935106  62.7004300 103.1663489
  46.7096655  59.3754400 103.6042934  46.6545459  59.2098671 102.6631378
  46.0842710  60.0830433 103.7605123  44.0242562  61.6803312 122.9296496
  44.8933722  61.8543964 122.5683131  43.5449314  62.4997728 122.8072226
  40.0192781  48.8762509 103.1828252  40.0071450  49.8204349 103.3396523
  40.9116203  48.6932654 102.8887713  38.1928743  68.8000413 114.6085930
  39.0955989  68.8324023 114.9252425  37.9666113  67.8700864 114.6232266
  39.9482345  67.5531399 111.2696009  38.9977976  67.5533261 111.1560381
  40.2514831  66.8064134 110.7532043  43.8344900  45.4705285 107.4374189
  43.0677296  44.9163772 107.5830871  44.2455605  45.5427154 108.2988340
  55.6835038  73.3891938 112.3341771  56.3213448  73.2698685 111.6305111
  55.5655881  74.3372782 112.3929723  52.4924744  73.3419366 112.2703296
  52.1543256  73.2260430 111.3823831  53.3614513  72.9410531 112.2504302
  48.3511560  75.1954842 108.2600187  47.7876425  75.1044779 107.4916474
  48.2363955  74.3754747 108.7402679  52.9744527  74.4954217 118.2289501
  52.9633168  74.1007016 117.3570005  53.1365167  73.7620290 118.8223273
  45.8975992  76.6906034 111.0984407  46.6897284  76.3496858 110.6830706
  46.1372642  76.8001009 112.0186560  53.9311119  78.8625810 103.5714652
  53.2799099  79.4479890 103.1848665  54.7255482  79.3932005 103.6309689
  47.8566746  75.9514947 103.9701786  48.6297622  75.4043934 103.8314662
  48.2092145  76.8159196 104.1816247  49.6951789  77.2791329 117.1768685
  49.4041654  78.1836960 117.0615352  50.3308773  77.3207857 117.8912755
  50.6207995  74.6568178 113.7670045  51.2171568  74.4324200 113.0527008
  50.6782967  73.9152923 114.3695493  50.1933024  72.1107613 101.6020236
  50.4458544  71.5889134 100.8403699  49.2557583  71.9473758 101.7046919
  55.2376307  71.1143391 109.4094979  56.0239396  70.6962815 109.0585396
  55.5015011  72.0189484 109.5776627  55.4086384  76.5516242 104.1083636
  54.7732217  76.6250868 104.8204540  55.0783790  77.1409841 103.4302715
  60.6384734  71.0518625 110.3127958  61.3709906  70.4817841 110.5465787
  59.8824089  70.6640225 110.7534463  49.9129313  74.0135719 103.8044611
  49.7965571  73.3380622 104.4725695  50.0231572  73.5268093 102.9876764
  52.2560853  73.4745866 107.5091300  51.8919061  72.9476487 108.2204221
  53.1127969  73.0844335 107.3357785  58.1610154  64.7640199 114.7722566
  57.8293479  65.6335610 114.5483781  57.5655767  64.4476483 115.4516597
  51.8966340  68.5035766 102.5052649  52.0640743  69.3716002 102.8723120
  51.7063509  68.6663048 101.5813938  54.6541674  76.9652745 114.1718479
  54.3542397  77.8677784 114.0634286  54.3092733  76.6984928 115.0239632
  48.1054155  73.4166542 110.2055183  47.1804652  73.2842756 110.4132875
  48.3538568  74.1960761 110.7025126  58.0538817  69.4835285 111.8515916
  57.1455695  69.4150693 111.5574677  58.0026413  69.9607230 112.6797742
  51.8755561  70.9593423 103.4899315  51.7555186  71.4050474 104.3284796
  51.1808150  71.3078741 102.9312853  45.4662966  73.0599815 111.0398972
  45.5955347  73.3134294 111.9538384  44.7860417  73.6527523 110.7203627
  49.6362453  83.7297065 107.1389447  49.5586483  84.6804890 107.2177927
  49.0324097  83.3842938 107.7964373  52.1279683  70.9024930 119.7950813
  51.3513017  71.4618851 119.7853678  52.7670246  71.3881713 120.3165684
  59.9200464  67.6851723 113.6293790  59.2774844  67.9784256 112.9833585
  59.4155392  67.5704644 114.4346987  57.5740627  71.4314896 104.3179649
  58.4858484  71.6642283 104.1427347  57.0650275  72.0151941 103.7554728
  50.3826055  73.7110384 119.3568780  51.1240740  74.2495428 119.0803604
  49.6763041  74.3376673 119.5140332  55.8581395  75.8539524 117.9540942
  56.2664751  75.4121935 117.2095574  55.1358657  75.2792152 118.2075135
  52.2112465  70.7912131 115.3274499  53.0573660  71.2151545 115.4709148
  52.1511103  70.1345755 116.0213062  56.1810210  76.4140715 111.7093231
  55.5519072  76.5786429 111.0069299  55.7935872  76.8282324 112.4804195
  60.0599442  77.3495153 109.0637595  59.3750480  77.7294054 108.5134628
  60.1443291  77.9590479 109.7969542  55.3611910  68.4516499 116.9855673
  55.1172842  69.2058560 116.4489948  55.6371841  68.8301847 117.8202920
  57.3150373  74.9955112 115.6632938  57.5267269  75.6386872 114.9867319
  57.2680122  74.1617428 115.1954868  54.9176602  67.6072932 112.5669510
  54.0561081  67.9054186 112.8586248  54.9439037  67.8243331 111.6350543
  51.7338172  76.1515123 108.9743316  52.1976517  76.4302826 108.1847938
  51.4694970  75.2498568 108.7916407  48.6262253  75.6986605 111.9123079
  49.1963610  76.1273873 111.2740564  49.2170365  75.4169189 112.6107265
  50.6707058  72.2738275 105.7832881  51.3731101  72.7259319 106.2506807
  50.3387686  71.6322094 106.4112774  49.1187419  70.8650032 120.1584090
  48.4886080  71.5466313 120.3919487  49.0123507  70.7533114 119.2137229
  44.4132392  70.5321828 111.0850015  43.6231446  70.7879357 110.6090125
  44.9043639  71.3470166 111.1902055  58.4296201  77.8727067 113.8355295
  59.2513645  77.4707255 113.5537977  58.4258604  77.7695301 114.7871411
  46.3647137  70.8966407 108.0433491  45.5678300  71.0085102 108.5616987
  46.1372729  71.2353060 107.1774382  52.1952805  77.4211111 115.9916006
  52.2597237  77.8831518 116.8274178  51.4863729  76.7908475 116.1198316
  42.6970095  70.7852319 113.5165005  42.9478133  71.6699328 113.7822581
  43.2329643  70.6056920 112.7440097  66.5202194  74.2165816 110.1840267
  65.7665903  73.6473214 110.0284271  66.6549735  74.1828480 111.1310902
  51.9100822  79.0879218 105.8594986  51.7746497  79.9330754 106.2879834
  52.4510635  79.2898496 105.0960920  48.3968162  65.1670798 122.5209342
  48.0035108  64.6136996 123.1956986  49.2134302  65.4781376 122.9115859
  45.3630220  76.6054656 106.4322911  45.8754740  77.3997906 106.5828476
  46.0152933  75.9080947 106.3656513  47.1725104  79.7220412 108.5145665
  47.3491733  80.6438377 108.3266648  47.9681938  79.4078832 108.9440044
  51.3136123  66.5828677 120.1129598  52.0545836  67.1835830 120.0334061
  51.5454046  65.8406315 119.5547641  46.4577461  71.7685044 118.3907828
  46.3430976  70.8670301 118.6914927  45.6021979  72.0148741 118.0392644
  48.2956420  81.2398586 114.5156007  48.8463845  81.1115649 113.7433001
  47.4567896  81.5393475 114.1650900  52.0923591  77.5049714 118.8600238
  52.6251928  76.7438002 118.6299546  51.5637672  77.2123366 119.6024393
  55.2593286  62.6109780 114.3893880  54.9157555  63.5011422 114.3132990
  55.6272248  62.4211438 113.5263465  43.3279136  74.9343310 107.2082482
  44.1654358  75.3440319 106.9916190  43.5057404  73.9942753 107.1782676
  55.2243569  72.6018391 102.8966315  54.7090192  73.3722996 103.1354702
  54.9520877  71.9283527 103.5199376  52.8090680  67.4468092 107.9551553
  51.9532276  67.0574942 107.7757192  53.2217631  67.5260053 107.0951339
  54.3389826  64.9814435 112.3543113  53.8354622  64.9444570 111.5410918
  54.6320433  65.8907178 112.4139770  50.5832712  65.0653165 111.3609295
  51.4485709  64.8695973 111.0015184  50.6510221  64.8363517 112.2878652
  60.1977843  75.3550746 104.8319488  59.4207286  75.0161905 104.3874650
  60.8769324  75.3603369 104.1574453  55.0129872  70.4745483 104.7226096
  54.7080007  70.7891632 105.5736239  55.9660314  70.5526903 104.7653429
  53.4576304  76.6335706 106.3719050  52.9297665  75.8988466 106.0592287
  52.9563806  77.4110383 106.1259018  58.4369150  74.8284727 111.4886096
  57.7792824  75.5183988 111.5766225  59.2409549  75.2181159 111.8320083
  48.1895031  67.2955373 108.7325662  48.7638783  67.0730554 107.9998855
  48.7766014  67.3644067 109.4854263  57.2474608  73.1829100 109.5390038
  57.7606490  73.8159091 110.0411748  57.8975832  72.5830295 109.1733398
  48.5164618  69.3259834 102.7521547  47.6801931  69.6634520 103.0730822
  48.3769388  69.1908814 101.8148684  50.4917699  64.1696622 107.4600731
  49.8382111  63.8545639 106.8357346  50.4498173  63.5472362 108.1860554
  51.6028904  74.4515917  99.3754023  50.6955966  74.2205170  99.5745172
  52.0999936  73.6553536  99.5628005  54.5096983  83.1613424 102.2950709
  53.8358681  83.4645121 102.9035667  54.8962805  83.9642504 101.9456166
  53.7255439  70.6578555 111.7848379  52.8078001  70.8793502 111.6270067
  54.1415583  70.7324866 110.9260086  54.5090487  72.0569971 106.9151059
  55.2562306  72.5691368 106.6058181  54.7782077  71.7354024 107.7755452
  52.7817137  74.5528512 103.8978013  51.8728357  74.2687544 103.9950483
  52.8112221  74.9727590 103.0381320  58.0136405  78.1635101 107.6669181
  57.5598732  77.3226011 107.7234371  57.3830371  78.7996499 108.0043961
  56.9569324  69.0927087 108.8969848  56.2192081  68.5804473 109.2280091
  57.2096098  68.6527469 108.0853125  56.4569344  80.0011598 108.6018999
  56.7492318  80.5616655 107.8831364  56.9667964  80.2940159 109.3572158
  57.0580952  61.8703339 109.4911617  57.3639828  61.0100703 109.2037533
  57.7833556  62.4620959 109.2910611  43.3505308  72.2734026 107.8793215
  43.1529707  71.6803386 107.1544282  42.7951972  71.9686236 108.5969154
  51.3302031  72.1657132 109.9987809  51.3850641  71.2130969 109.9230285
  50.5193233  72.3216571 110.4829107  52.4793225  76.0937255 101.2366092
  52.0412655  75.3773114 100.7771729  53.2203666  76.3213370 100.6751183
  49.2694391  70.7834192 107.7578187  48.4562257  71.0828362 108.1643380
  49.7653385  70.3889881 108.4752670  51.4202969  80.7791949 109.6912452
  51.3779148  81.0052795 108.7620984  52.3365668  80.5455323 109.8398253
  54.8668603  71.2476016 116.5893081  55.2217991  71.4747490 117.4487547
  55.5140734  71.5794393 115.9670337  60.5966340  74.3694452 107.2942410
  60.4584238  74.5596048 106.3663600  60.2402559  75.1313835 107.7510461
  48.7608466  68.3552547 113.3739422  49.4007845  68.2141307 112.6762386
  47.9285997  68.0687061 112.9978024  60.6235719  76.4370979 112.3053682
  61.0572226  76.3446268 113.1536736  61.3367300  76.4128480 111.6673698
  49.5368770  77.6554978 109.4874415  50.3309368  77.1605298 109.2856990
  48.8260462  77.1272841 109.1242120  54.3563614  80.0373073 113.8386782
  54.4100637  80.6064010 114.6064498  53.4878396  80.2074958 113.4740820
  45.8451533  71.7998060 105.5634167  44.9149121  71.7382515 105.7804130
  45.9409005  71.2774012 104.7670809  45.7637082  68.3252872 108.1512409
  46.0243900  69.2398206 108.0421570  46.5854255  67.8577315 108.3009022
  47.2362008  69.7390630 115.3211234  47.9085061  69.5307992 114.6723883
  46.4091794  69.5412716 114.8816466  61.4851269  76.4794680 114.8386567
  61.6787159  77.3840490 115.0845842  61.3851887  76.0202099 115.6725152
  53.1387580  66.3652570 117.3376895  52.4915495  67.0642520 117.2441371
  53.9088595  66.7988714 117.7053143  53.3151714  74.2033335 115.3973714
  54.2443774  74.3544495 115.2242682  52.8942744  74.2917356 114.5422361
  52.1140046  78.2284000 113.1672252  51.9751132  77.8602784 114.0398190
  51.3254642  78.7431639 112.9956210  52.7088198  83.3293096 104.5097788
  52.8839954  82.8581139 105.3243411  52.0220986  83.9558862 104.7379049
  53.6645261  77.6065603 110.5561090  53.3295094  77.5666372 111.4518740
  53.1649207  76.9410318 110.0831500  47.6389505  73.0133233 116.0813671
  47.5009303  72.2813471 116.6825210  48.5494428  72.9242133 115.7997859
  56.6004453  74.9521637 100.8298149  55.9833623  74.2268465 100.7331202
  56.1320941  75.7130997 100.4865224  50.2671806  72.7253192 115.5697350
  50.9771424  72.0846384 115.5283969  50.2241114  72.9766087 116.4923531
  48.9800740  69.7118410 117.3892990  48.4438097  69.2609148 118.0414586
  48.3917448  69.8464319 116.6463454  47.2749283  86.4782459 111.2837649
  47.5145881  87.1100983 111.9616667  46.4318480  86.1270499 111.5703008
  48.3902999  69.1707061  99.9519454  47.5132465  69.0495862  99.5881700
  48.8660752  68.3793139  99.6998342  58.2575992  77.6260129 116.7217909
  57.3702770  77.2886051 116.8444308  58.8274543  76.8943160 116.9586675
  39.9105139  73.9584221 110.0460961  40.5976179  73.6445951 109.4581976
  39.7553267  74.8625586 109.7728212  44.7139861  68.8474417 114.4745984
  44.6298050  68.2400087 113.7396394  43.8922567  69.3383436 114.4755481
  51.7877145  82.2861581 113.6879153  51.7147316  83.0916553 114.1998457
  51.3454538  82.4853547 112.8627174  51.5766925  81.5233352 107.1981974
  50.7934446  82.0655032 107.2920199  52.2759670  82.0407331 107.5976215
  54.8863575  67.3327981 109.8416180  55.3832274  66.5797943 109.5217250
  54.1150556  67.3692298 109.2759389  62.7393332  73.0368347 111.4834471
  62.7283208  73.9193062 111.1128404  61.8710712  72.6839897 111.2889008
  55.9693355  76.0899668 107.4154603  55.0349634  76.2101131 107.2459307
  56.1470024  75.1872135 107.1514613  51.4698543  69.4745364 109.5687864
  51.0996331  68.9216404 110.2568770  51.9657636  68.8703497 109.0162864
  59.3565907  71.9316987 107.9504637  59.8226359  72.7644979 107.8764940
  59.8073407  71.4661969 108.6549896  49.2987742  79.9342859 116.6642882
  49.9997202  80.5679342 116.8172276  48.8282857  80.2757591 115.9038521
  57.4242138  78.2760809 104.9490789  57.7001982  78.1617403 105.8584663
  56.5546637  77.8778294 104.9102962  57.3282570  64.2997574 111.9895538
  56.4145649  64.5301801 112.1577745  57.7575671  64.3836019 112.8409571
  57.0989028  72.4887466 114.4895432  56.4460478  72.7363374 113.8347885
  57.4769408  71.6751605 114.1557910  54.0596202  82.5247160 108.5923603
  54.2418596  81.7068816 109.0551355  54.8829188  82.7414852 108.1548493
  54.3938367  81.4515345 105.8538651  54.9226134  80.9407799 105.2408813
  54.6566587  81.1357875 106.7184184  53.1476601  73.2307278 120.9761469
  52.4717238  73.1301407 121.6463845  53.9704235  73.0746491 121.4397467
  44.8955460  79.4679214 113.5973985  45.4808897  78.7222902 113.7301889
  44.6980299  79.7783171 114.4810649  47.7494115  82.5030461 108.6136427
  47.0804491  82.9876589 108.1300467  47.6106985  82.7499682 109.5279806
  39.4873115  72.0384814 112.3178428  39.5257214  71.5048405 113.1115546
  38.9813408  71.5120020 111.6989405  46.8663877  66.8849355 115.8140970
  46.9305204  67.7464186 115.4018368  46.8030997  66.2723356 115.0813329
  46.3416150  68.9572487 119.4614004  46.9688188  68.5749565 120.0751529
  45.4844069  68.7386689 119.8269697  43.1181692  70.7648916 105.3932359
  43.4135133  69.8559595 105.3399413  42.2169728  70.7436656 105.0713362
  55.0267771  82.4856180 112.1982768  54.9018911  81.6845920 111.6893713
  55.6846862  82.9802374 111.7096738  46.6475939  68.8404913 111.3759908
  45.9262525  69.4540881 111.2367381  47.4369195  69.3762678 111.2976554
  57.0902680  80.2865201 113.8262318  56.1433015  80.1670552 113.7540644
  57.4385453  79.3987699 113.9088579  49.4502253  66.1759339 117.6500560
  49.9736655  66.4221636 118.4126869  49.2314586  67.0079374 117.2303697
  44.8469534  68.4463014 105.5171684  44.5182240  67.5660393 105.3346790
  45.2008905  68.3910683 106.4048074  54.0949113  80.0817917 110.0266670
  53.9474075  79.1534624 110.2074240  54.9202606  80.1038007 109.5423745
  47.9611357  68.7335984 105.8847162  48.3007430  69.2621905 105.1625770
  48.4083478  69.0716390 106.6605729  57.6983235  80.9046476 111.1131543
  58.6229782  80.6989337 110.9755994  57.5298538  80.6562877 112.0220884
  50.6554798  67.1173035 115.3350230  50.3151618  66.3180848 115.7370910
  49.9493804  67.4174745 114.7627063  51.3071270  64.2022347 113.7877553
  52.1297339  63.7282825 113.6656444  51.5509333  64.9812831 114.2876239
  49.9479504  67.2310605 104.0840455  50.6687867  67.6091858 103.5804172
  49.3244808  67.9499482 104.1875433  54.0910627  67.9355754 105.0198787
  54.3074242  68.8180392 104.7187615  53.6104694  67.5441968 104.2904429
  48.8309849  70.8941468 111.5969532  48.6854429  71.2081771 112.4893813
  48.3535052  71.5126368 111.0440430  50.6906231  67.8844016 111.6450421
  50.6767800  66.9885109 111.3082719  51.4078660  67.8914679 112.2788707
  52.5432362  68.3181356 113.6903549  52.2850140  69.2398426 113.6887879
  52.0117403  67.9211790 114.3804013  57.4878551  81.4232143 106.4693634
  57.6615428  80.8578565 105.7167487  57.9807442  82.2233038 106.2873124
  43.3055511  73.4346812 114.5357193  42.7608979  74.2106620 114.6677467
  44.1834861  73.7817617 114.3776314  50.0943127  66.7658396 106.9137991
  50.2159039  65.8375042 107.1128879  49.8045170  66.7797082 106.0016307
  52.9634318  64.4513306 110.0504711  52.9856015  64.5152639 109.0956691
  53.3802377  63.6117815 110.2445217  63.3417942  74.1868566 108.0883934
  63.7849088  73.4375891 107.6903057  62.4644452  74.1778702 107.7057666
  58.4753723  80.7398907 103.5690532  59.1704628  81.3605600 103.7877847
  58.8176874  79.8894259 103.8442910  44.0921533  72.5616708 117.4287350
  43.3503269  72.7099344 118.0151980  43.7714277  72.8224974 116.5654099
  60.3745147  78.1898613 105.0977863  60.8996471  78.5285886 104.3727183
  60.2867499  77.2545628 104.9140998  52.0585807  84.2570596 109.4573116
  51.6190798  83.7646975 110.1505973  52.8093924  83.7143564 109.2165192
  44.5378146  80.4482137 109.4597744  45.3636166  80.1485909 109.0796388
  44.1872198  79.6789759 109.9087533  49.5059679  79.8008605 111.5295418
  48.8839689  79.1379310 111.2297646  50.1764546  79.8269737 110.8469066
  42.7386751  78.3668463 110.4186678  41.9018660  77.9390638 110.2370679
  42.7110397  78.5600907 111.3557469  49.5784207  68.2790393 121.1227924
  49.6272362  69.1552516 120.7405694  50.1206721  67.7367786 120.5499567
  49.0673186  78.3512529 105.0053879  49.2161307  79.0347993 104.3520551
  49.8739630  78.3317619 105.5203334  57.4740690  71.6554911 119.0321096
  58.3750553  71.5161376 118.7405094  57.5488665  71.8209366 119.9719274
  51.8083495  69.0321766 117.8774283  50.9386805  69.3255332 117.6056871
  52.0442976  69.6162211 118.5981546  62.8850807  75.6573804 110.4806381
  63.7197698  76.0963608 110.6443942  63.0209936  75.1812457 109.6614627
  59.9342313  73.2153539 116.4283869  60.4096434  73.4081185 115.6202721
  59.0107878  73.2712725 116.1827253  46.8225819  74.3777706 106.0114948
  46.5771861  73.4740036 106.2095158  46.9921734  74.3794857 105.0694426
  54.5122529  65.2501383 115.3939703  55.0304473  65.9862410 115.0686192
  54.1577662  65.5565376 116.2286462  46.0921467  70.1106064 103.5101109
  45.3990712  70.1850419 102.8541145  45.8473219  69.3466407 104.0322626
  54.7635123  61.6701665 110.9140600  55.0436877  61.0024854 111.5401026
  55.5485730  61.8630761 110.4015264  52.5668592  80.8460659 102.4765626
  51.9942559  81.4650846 102.0236098  53.1401386  81.3960021 103.0105548
  58.6343982  70.0919299 114.6612175  59.5861405  70.1917397 114.6824399
  58.4647432  69.2997568 115.1710259  56.6558361  67.1774882 114.8471576
  56.0608293  67.4579895 114.1518064  56.3708058  67.6668783 115.6188317
  55.7865852  81.1297809 103.6074208  56.7196525  81.0643371 103.8107084
  55.6989064  81.9654076 103.1488741  58.4153868  80.4463680 100.5678156
  58.3367500  80.1123543 101.4613914  59.2363535  80.9385447 100.5669628
  61.1132059  73.3125419 113.7754474  61.0808380  72.3741420 113.9614158
  61.7232683  73.3909456 113.0420299  52.9515390  72.1821472  99.8181679
  53.8974495  72.0527680  99.8870097  52.5729635  71.4436134 100.2951107
  61.2626548  70.1036462 113.8212758  60.7465597  69.3194919 113.6342687
  62.1466497  69.7755179 113.9859277  58.9237275  63.8477478 109.7808570
  58.7262096  63.5392566 110.6651902  59.5336980  64.5739117 109.9106500
  66.9308609  74.3741426 112.9160511  67.6611998  74.1126714 113.4768215
  66.3215555  73.6370148 112.9562579  65.0123906  72.5149288 113.5134962
  64.2857070  72.3805253 112.9051454  64.5971193  72.8226117 114.3191681
  51.1358308  70.1071448  99.7536564  50.2289763  69.8104561  99.8299277
  51.4134289  69.8101266  98.8870850  42.0536248  71.4277812 110.2035610
  41.7339032  70.5743120 109.9109984  41.5069676  71.6426390 110.9593577
  45.8316155  74.1440253 113.9205117  46.0502165  75.0757360 113.9393150
  46.2441929  73.7848227 114.7059920  52.7520373  64.6508338 105.9080805
  51.9421102  64.3055423 106.2836051  53.4404790  64.3415882 106.4968417
  54.6810922  63.7286385 107.5305102  55.2341960  64.1481838 108.1895125
  54.9181008  62.8022133 107.5728058  50.7044021  69.7173458 123.3107866
  50.6040748  70.6667815 123.2419957  50.4865563  69.3891697 122.4383936
  49.9057092  66.9658383  99.8948543  50.7676256  67.2913282 100.1544360
  50.0907436  66.1789879  99.3821609  41.9224508  75.0480723 112.1728732
  41.2287979  74.6334676 111.6598686  42.6697499  75.0901260 111.5762151
  58.0589729  65.8386910 107.0383766  57.4788398  66.4971714 106.6561818
  57.7925661  65.0164254 106.6271183  56.5093295  65.2391968 109.2405086
  57.0093073  65.3508502 108.4319405  57.1528903  64.9353020 109.8805895
  50.5675291  73.1470597 122.1272927  50.0842373  73.9470957 122.3336816
  50.6536230  73.1578542 121.1740371  43.8361250  74.9798977 110.0494747
  43.8131939  75.0786664 109.0976630  44.1461887  75.8264128 110.3711913
  46.4948628  77.0375132 114.1641361  47.4491882  77.0059074 114.0971293
  46.2961152  76.5765756 114.9791587  47.0848010  75.6076248 116.7312159
  47.9040899  76.1020327 116.7546996  47.3584818  74.6908216 116.7029726
  56.8414607  67.9987000 106.0940114  55.9540462  68.2836651 105.8760309
  57.2568596  67.8380764 105.2467391  60.1929143  68.0233521 109.8094453
  60.9689533  68.5129974 110.0819070  59.4677277  68.4491575 110.2666323
  62.6301701  68.7361140 110.8668394  63.2246192  68.4956876 110.1561702
  62.7028285  68.0168271 111.4941930  44.8498857  82.5794751 111.1811559
  44.7153325  81.8195152 110.6149557  44.4330919  83.3035651 110.7140348
  55.9857820  77.7631675 100.1888134  56.6893670  77.9681677 100.8045790
  55.2620469  78.3308437 100.4537218  56.8155630  73.5141536 106.3090404
  56.7590832  73.9710088 105.4698037  57.3683973  72.7532221 106.1313247
  60.6260436  69.3031268 107.1340524  60.3697371  68.9027904 107.9648732
  60.0013304  70.0175062 107.0090663  64.9372774  72.0427341 109.6411815
  64.3772332  72.1120531 110.4143377  64.3316278  71.8668326 108.9211312
  48.0067983  83.4764068 111.3930002  47.8900367  84.4209501 111.2908692
  47.1860429  83.1737630 111.7815801  57.8944518  78.2014204 102.2386594
  58.7290121  77.7695403 102.0564069  57.7328860  78.0296218 103.1663489
  57.5490410  74.7046317 103.6042934  57.4939213  74.5390589 102.6631378
  56.9236465  75.4122350 103.7605123  42.3382925  69.9414382 117.4304356
  42.9841788  69.4313336 117.9191581  42.1300076  70.6783063 118.0047781
  50.8586535  64.2054426 103.1828252  50.8465205  65.1496266 103.3396523
  51.7509957  64.0224572 102.8887713  49.0322497  84.1292330 114.6085930
  49.9349744  84.1615941 114.9252425  48.8059867  83.1992781 114.6232266
  50.7876099  82.8823317 111.2696009  49.8371730  82.8825178 111.1560381
  51.0908585  82.1356051 110.7532043  54.6738655  60.7997203 107.4374189
  53.9071050  60.2455690 107.5830871  55.0849360  60.8719072 108.2988340
  46.6780416  67.0881999 121.5279370  47.5411877  66.7318804 121.7382695
  46.1045826  66.7495894 122.2154774  59.1905315  90.5246760 108.2600187
  58.6270180  90.4336697 107.4916474  59.0757710  89.7046664 108.7402679
  64.7704873  94.1917727 103.5714652  64.1192853  94.7771808 103.1848665
  65.5649236  94.7223922 103.6309689  58.6960500  91.2806865 103.9701786
  59.4691376  90.7335852 103.8314662  59.0485899  92.1451114 104.1816247
  61.0326778  87.4399531 101.6020236  61.2852299  86.9181052 100.8403699
  60.0951337  87.2765676 101.7046919  66.2480138  91.8808159 104.1083636
  65.6125971  91.9542786 104.8204540  65.9177545  92.4701758 103.4302715
  60.7523067  89.3427637 103.8044611  60.6359325  88.6672540 104.4725695
  60.8625327  88.8560011 102.9876764  63.0954608  88.8037784 107.5091300
  62.7312815  88.2768405 108.2204221  63.9521724  88.4136253 107.3357785
  62.7360095  83.8327683 102.5052649  62.9034497  84.7007920 102.8723120
  62.5457264  83.9954965 101.5813938  62.7149316  86.2885341 103.4899315
  62.5948941  86.7342392 104.3284796  62.0201904  86.6370659 102.9312853
  68.4134382  86.7606814 104.3179649  69.3252238  86.9934201 104.1427347
  67.9044029  87.3443858 103.7554728  61.5100812  87.6030193 105.7832881
  62.2124856  88.0551237 106.2506807  61.1781441  86.9614012 106.4112774
  55.2526146  85.8613746 111.0850015  54.4625200  86.1171274 110.6090125
  55.7437394  86.6762084 111.1902055  57.2040892  86.2258325 108.0433491
  56.4072055  86.3377019 108.5616987  56.9766484  86.5644977 107.1774382
  56.2023974  91.9346574 106.4322911  56.7148495  92.7289824 106.5828476
  56.8546687  91.2372864 106.3656513  54.1672891  90.2635228 107.2082482
  55.0048113  90.6732236 106.9916190  54.3451159  89.3234670 107.1782676
  66.0637323  87.9310309 102.8966315  65.5483947  88.7014913 103.1354702
  65.7914632  87.2575445 103.5199376  63.6484434  82.7760009 107.9551553
  62.7926030  82.3866860 107.7757192  64.0611386  82.8551970 107.0951339
  61.4226467  80.3945082 111.3609295  62.2879463  80.1987891 111.0015184
  61.4903976  80.1655434 112.2878652  65.8523626  85.8037401 104.7226096
  65.5473762  86.1183550 105.5736239  66.8054068  85.8818821 104.7653429
  64.2970058  91.9627624 106.3719050  63.7691420  91.2280384 106.0592287
  63.7957561  92.7402300 106.1259018  59.0288786  82.6247290 108.7325662
  59.6032538  82.4022472 107.9998855  59.6159768  82.6935985 109.4854263
  59.3558373  84.6551751 102.7521547  58.5195685  84.9926438 103.0730822
  59.2163142  84.5200731 101.8148684  61.3311453  79.4988539 107.4600731
  60.6775866  79.1837556 106.8357346  61.2891928  78.8764280 108.1860554
  62.4422658  89.7807834  99.3754023  61.5349720  89.5497088  99.5745172
  62.9393690  88.9845454  99.5628005  65.3484242  87.3861889 106.9151059
  66.0956061  87.8983286 106.6058181  65.6175831  87.0645941 107.7755452
  63.6210892  89.8820429 103.8978013  62.7122111  89.5979462 103.9950483
  63.6505976  90.3019508 103.0381320  67.7963079  84.4219005 108.8969848
  67.0585836  83.9096391 109.2280091  68.0489852  83.9819386 108.0853125
  67.8974706  77.1995257 109.4911617  68.2033583  76.3392620 109.2037533
  68.6227311  77.7912877 109.2910611  54.1899062  87.6025943 107.8793215
  53.9923462  87.0095304 107.1544282  53.6345726  87.2978154 108.5969154
  63.3186980  91.4229173 101.2366092  62.8806409  90.7065032 100.7771729
  64.0597420  91.6505288 100.6751183  60.1088146  86.1126110 107.7578187
  59.2956011  86.4120280 108.1643380  60.6047140  85.7181798 108.4752670
  56.6845288  87.1289977 105.5634167  55.7542876  87.0674433 105.7804130
  56.7802760  86.6065930 104.7670809  56.6030837  83.6544790 108.1512409
  56.8637654  84.5690123 108.0421570  57.4248009  83.1869233 108.3009022
  67.4398207  90.2813555 100.8298149  66.8227378  89.5560383 100.7331202
  66.9714696  91.0422915 100.4865224  59.2296753  84.4998979  99.9519454
  58.3526219  84.3787780  99.5881700  59.7054506  83.7085057  99.6998342
  50.7498893  89.2876139 110.0460961  51.4369933  88.9737869 109.4581976
  50.5947022  90.1917503 109.7728212  55.5533615  84.1766335 114.4745984
  55.4691804  83.5692005 113.7396394  54.7316322  84.6675353 114.4755481
  65.7257329  82.6619899 109.8416180  66.2226029  81.9089861 109.5217250
  64.9544311  82.6984215 109.2759389  62.3092298  84.8037282 109.5687864
  61.9390085  84.2508322 110.2568770  62.8051390  84.1995415 109.0162864
  50.3266869  87.3676732 112.3178428  50.3650969  86.8340323 113.1115546
  49.8207162  86.8411937 111.6989405  53.9575447  86.0940834 105.3932359
  54.2528888  85.1851512 105.3399413  53.0563483  86.0728574 105.0713362
  57.4869694  84.1696831 111.3759908  56.7656280  84.7832798 111.2367381
  58.2762950  84.7054595 111.2976554  55.6863288  83.7754932 105.5171684
  55.3575995  82.8952311 105.3346790  56.0402659  83.7202600 106.4048074
  58.8005112  84.0627902 105.8847162  59.1401184  84.5913823 105.1625770
  59.2477232  84.4008308 106.6605729  60.7873259  82.5602523 104.0840455
  61.5081621  82.9383776 103.5804172  60.1638563  83.2791400 104.1875433
  64.9304382  83.2647672 105.0198787  65.1467996  84.1472310 104.7187615
  64.4498449  82.8733886 104.2904429  61.5299986  83.2135933 111.6450421
  61.5161555  82.3177027 111.3082719  62.2472414  83.2206597 112.2788707
  60.9336882  82.0950314 106.9137991  61.0552793  81.1666960 107.1128879
  60.6438924  82.1089000 106.0016307  63.8028072  79.7805224 110.0504711
  63.8249769  79.8444557 109.0956691  64.2196131  78.9409733 110.2445217
  59.9066941  93.6804446 105.0053879  60.0555061  94.3639911 104.3520551
  60.7133384  93.6609536 105.5203334  57.6619574  89.7069624 106.0114948
  57.4165616  88.8031954 106.2095158  57.8315488  89.7086774 105.0694426
  56.9315221  85.4397981 103.5101109  56.2384466  85.5142336 102.8541145
  56.6866973  84.6758325 104.0322626  65.6028878  76.9993583 110.9140600
  65.8830632  76.3316772 111.5401026  66.3879485  77.1922678 110.4015264
  63.4062346  96.1752577 102.4765626  62.8336313  96.7942764 102.0236098
  63.9795140  96.7251938 103.0105548  69.2547623  95.7755597 100.5678156
  69.1761254  95.4415461 101.4613914  70.0757290  96.2677365 100.5669628
  63.7909145  87.5113389  99.8181679  64.7368250  87.3819598  99.8870097
  63.4123390  86.7728051 100.2951107  69.7631029  79.1769396 109.7808570
  69.5655851  78.8684484 110.6651902  70.3730735  79.9031034 109.9106500
  61.9752062  85.4363366  99.7536564  61.0683517  85.1396479  99.8299277
  62.2528043  85.1393184  98.8870850  52.8930002  86.7569729 110.2035610
  52.5732787  85.9035037 109.9109984  52.3463431  86.9718307 110.9593577
  63.5914128  79.9800256 105.9080805  62.7814856  79.6347341 106.2836051
  64.2798545  79.6707799 106.4968417  65.5204676  79.0578302 107.5305102
  66.0735715  79.4773756 108.1895125  65.7574762  78.1314051 107.5728058
  60.7450847  82.2950301  99.8948543  61.6070011  82.6205199 100.1544360
  60.9301191  81.5081797  99.3821609  52.7618262  90.3772641 112.1728732
  52.0681734  89.9626594 111.6598686  53.5091253  90.4193177 111.5762151
  68.8983483  81.1678828 107.0383766  68.3182152  81.8263632 106.6561818
  68.6319416  80.3456172 106.6271183  67.3487049  80.5683885 109.2405086
  67.8486828  80.6800420 108.4319405  67.9922657  80.2644938 109.8805895
  54.6755005  90.3090895 110.0494747  54.6525693  90.4078582 109.0976630
  54.9855641  91.1556045 110.3711913  67.6808361  83.3278918 106.0940114
  66.7934216  83.6128569 105.8760309  68.0962350  83.1672681 105.2467391
  66.8251575  93.0923593 100.1888134  67.5287425  93.2973595 100.8045790
  66.1014223  93.6600354 100.4537218  67.6549385  88.8433454 106.3090404
  67.5984586  89.3002005 105.4698037  68.2077727  88.0824138 106.1313247
  71.4654191  84.6323186 107.1340524  71.2091125  84.2319821 107.9648732
  70.8407059  85.3466980 107.0090663  68.7338272  93.5306122 102.2386594
  69.5683876  93.0987320 102.0564069  68.5722615  93.3588135 103.1663489
  68.3884164  90.0338235 103.6042934  68.3332968  89.8682507 102.6631378
  67.7630219  90.7414268 103.7605123  61.6980290  79.5346344 103.1828252
  61.6858959  80.4788184 103.3396523  62.5903712  79.3516490 102.8887713
  65.5132409  76.1289121 107.4374189  64.7464805  75.5747607 107.5830871
  65.9243114  76.2010990 108.2988340  25.8972606  11.4650049  87.2923463
  25.8186238  11.1309913  88.1859220  26.7182273  11.9571817  87.2914935
  32.2523611  25.2104097  90.2959958  31.6011591  25.7958177  89.9093972
  33.0467974  25.7410292  90.3554996  26.1779238  22.2993234  90.6947093
  26.9510114  21.7522221  90.5559968  26.5304637  23.1637483  90.9061554
  28.5145516  18.4585900  88.3265542  28.7671037  17.9367422  87.5649005
  27.5770075  18.2952046  88.4292226  33.7298876  22.8994529  90.8328942
  33.0944709  22.9729155  91.5449847  33.3996283  23.4888128  90.1548022
  28.2341805  20.3614006  90.5289917  28.1178063  19.6858910  91.1971002
  28.3444065  19.8746380  89.7122070  30.2178833  14.8514053  89.2297955
  30.3853235  15.7194289  89.5968426  30.0276002  15.0141335  88.3059244
  30.1968054  17.3071711  90.2144622  30.0767679  17.7528761  91.0530102
  29.5020642  17.6557028  89.6558160  27.9574946  30.0775352  93.8634753
  27.8798975  31.0283177  93.9423234  27.3536589  29.7321225  94.5209680
  35.8953120  17.7793184  91.0424956  36.8070976  18.0120570  90.8672654
  35.3862767  18.3630228  90.4800035  38.3811934  23.6973440  95.7882901
  37.6962972  24.0772341  95.2379935  38.4655783  24.3068767  96.5214849
  30.0550664  22.4993410  95.6988623  30.5189009  22.7781113  94.9093245
  29.7907462  21.5976855  95.5161713  28.9919550  18.6216563  92.5078188
  29.6943593  19.0737606  92.9752114  28.6600178  17.9800382  93.1358081
  44.8414687  20.5644103  96.9085574  44.0878395  19.9951501  96.7529578
  44.9762228  20.5306767  97.8556208  30.2313315  25.4357505  92.5840293
  30.0958989  26.2809041  93.0125141  30.7723127  25.6376783  91.8206227
  23.6842712  22.9532943  93.1568218  24.1967233  23.7476194  93.3073783
  24.3365425  22.2559234  93.0901819  25.4937597  26.0698700  95.2390971
  25.6704225  26.9916664  95.0511955  26.2894430  25.7557119  95.6685351
  33.5456061  18.9496678  89.6211622  33.0302684  19.7201283  89.8600009
  33.2733369  18.2761814  90.2444683  38.5190335  21.7029033  91.5564795
  37.7419778  21.3640192  91.1119957  39.1981816  21.7081656  90.8819760
  33.3342364  16.8223770  91.4471403  33.0292500  17.1369920  92.2981546
  34.2872806  16.9005190  91.4898736  31.7788796  22.9813994  93.0964357
  31.2510157  22.2466753  92.7837594  31.2776299  23.7588670  92.8504325
  36.7581642  21.1763014  98.2131403  36.1005316  21.8662276  98.3011532
  37.5622041  21.5659446  98.5565389  35.5687101  19.5307387  96.2635345
  36.0818982  20.1637379  96.7657054  36.2188325  18.9308582  95.8978705
  26.8377111  15.6738121  89.4766853  26.0014423  16.0112808  89.7976128
  26.6981880  15.5387101  88.5393990  29.9241396  20.7994204  86.0999330
  29.0168458  20.5683457  86.2990479  30.4212428  20.0031823  86.2873311
  32.8309475  29.5091711  89.0196016  32.1571174  29.8123408  89.6280974
  33.2175297  30.3120791  88.6701473  32.8302979  18.4048258  93.6396366
  33.5774798  18.9169655  93.3303488  33.0994569  18.0832311  94.5000759
  31.1029630  20.9006799  90.6223320  30.1940849  20.6165832  90.7195790
  31.1324713  21.3205877  89.7626627  36.3348897  24.5113388  94.3914487
  35.8811224  23.6704298  94.4479678  35.7042864  25.1474787  94.7289268
  34.7781836  26.3489885  95.3264306  35.0704811  26.9094942  94.6076671
  35.2880457  26.6418446  96.0817465  30.8005717  22.4415542  87.9611398
  30.3625147  21.7251401  87.5017036  31.5416158  22.6691657  87.3996490
  29.7415461  27.1270236  96.4157759  29.6991640  27.3531082  95.4866291
  30.6578160  26.8933611  96.5643560  38.9178832  20.7172739  94.0187717
  38.7796731  20.9074335  93.0908906  38.5615051  21.4792122  94.4755768
  38.9448212  22.7849267  99.0298988  39.3784718  22.6924556  99.8782042
  39.6579792  22.7606767  98.3919004  27.8581262  24.0033265  96.2119721
  28.6521861  23.5083585  96.0102296  27.1472955  23.4751128  95.8487427
  31.0300690  29.6771384  91.2343095  31.2052446  29.2059427  92.0488718
  30.3433478  30.3037150  91.4624356  34.9216945  21.2999924  87.5543456
  34.3046116  20.5746752  87.4576509  34.4533433  22.0609284  87.2110530
  25.5961775  32.8260746  98.0082955  25.8358374  33.4579270  98.6861974
  24.7530972  32.4748786  98.2948314  26.7115491  15.5185348  86.6764760
  25.8344957  15.3974149  86.3127007  27.1873244  14.7271427  86.4243649
  29.8979417  27.8711639  93.9227281  29.1146939  28.4133319  94.0165505
  30.5972162  28.3885618  94.3221522  41.0605824  19.3846634  98.2079778
  41.0495701  20.2671349  97.8373711  40.1923204  19.0318185  98.0134315
  34.2905848  22.4377955  94.1399910  33.3562126  22.5579418  93.9704614
  34.4682516  21.5350422  93.8759919  37.6778399  18.2795275  94.6749944
  38.1438851  19.1123266  94.6010246  38.1285900  17.8140256  95.3795202
  35.7454630  24.6239096  91.6736096  36.0214474  24.5095691  92.5829970
  34.8759129  24.2256581  91.6348269  32.3808694  28.8725447  95.3168909
  32.5631089  28.0547103  95.7796662  33.2041680  29.0893139  94.8793799
  32.7150860  27.7993632  92.5783958  33.2438626  27.2886087  91.9654120
  32.9779079  27.4836162  93.4429491  26.0706608  28.8508749  95.3381734
  25.4016983  29.3354876  94.8545774  25.9319477  29.0977969  96.2525112
  33.3480263  28.8334468  98.9228074  33.2231403  28.0324208  98.4139020
  34.0059355  29.3280661  98.4342044  35.4115172  26.6343488 100.5507624
  34.4645507  26.5148839 100.4785951  35.7597945  25.7465986 100.6333886
  32.4161605  26.4296204  96.7511977  32.2686568  25.5012911  96.9319547
  33.2415099  26.4516295  96.2669052  36.0195727  27.2524763  97.8376849
  36.9442274  27.0467624  97.7001300  35.8511030  27.0041164  98.7466191
  32.4123119  14.2834042  91.7444094  32.6286734  15.1658680  91.4432922
  31.9317187  13.8920255  91.0149736  35.8091043  27.7710430  93.1938941
  35.9827921  27.2056853  92.4412793  36.3019934  28.5711325  93.0118431
  41.6630434  20.5346853  94.8129241  42.1061580  19.7854178  94.4148364
  40.7856945  20.5256990  94.4302973  36.7966216  27.0877195  90.2935839
  37.4917120  27.7083887  90.5123154  37.1389366  26.2372546  90.5688217
  38.6957639  24.5376900  91.8223170  39.2208963  24.8764173  91.0972490
  38.6079991  23.6023915  91.6386304  30.3798300  30.6048883  96.1818423
  29.9403290  30.1125262  96.8751280  31.1306417  30.0621851  95.9410498
  27.3885679  24.6990816  91.7299185  27.5373799  25.3826280  91.0765858
  28.1952122  24.6795906  92.2448641  41.2063299  22.0052091  97.2051688
  42.0410190  22.4441896  97.3689248  41.3422428  21.5290745  96.3859934
  30.8881084  27.1938946  89.2010933  30.3155051  27.8129133  88.7481405
  31.4613878  27.7438308  89.7350855  34.1078344  27.4776096  90.3319515
  35.0409017  27.4121658  90.5352390  34.0201557  28.3132363  89.8734048
  36.7366361  26.7941967  87.2923463  36.6579992  26.4601830  88.1859220
  37.5576027  27.2863735  87.2914935  31.2727883  18.5299759  86.5426985
  32.2186987  18.4005967  86.6115403  30.8942128  17.7914421  87.0196413
  45.2521102  20.7219713  99.6405818  45.9824490  20.4605001 100.2013521
  44.6428047  19.9848435  99.6807886  29.4570800  16.4549735  86.4781870
  28.5502255  16.1582848  86.5544584  29.7346781  16.1579554  85.6116157
  28.2269584  13.3136671  86.6193850  29.0888748  13.6391569  86.8789667
  28.4119929  12.5268167  86.1066915  35.1627099  14.3465288  92.8185421
  34.2752954  14.6314938  92.6005616  35.5781088  14.1859051  91.9712698
  34.3070312  24.1109962  86.9133441  35.0106163  24.3159965  87.5291096
  33.5832961  24.6786724  87.1782524  35.1368123  19.8619823  93.0335711
  35.0803324  20.3188375  92.1943343  35.6896465  19.1010508  92.8558554
  38.9472929  15.6509555  93.8585831  38.6909863  15.2506191  94.6894038
  38.3225797  16.3653349  93.7335970  43.2585266  18.3905629  96.3657122
  42.6984824  18.4598818  97.1388684  42.6528770  18.2146613  95.6456618
  26.3280475  29.8242356  98.1175308  26.2112859  30.7687788  98.0153998
  25.5072922  29.5215917  98.5061107  36.2157010  24.5492491  88.9631901
  37.0502614  24.1173690  88.7809376  36.0541353  24.3774505  89.8908795
  35.8702902  21.0524605  90.3288240  35.8151706  20.8868876  89.3876684
  35.2448957  21.7600638  90.4850430  29.1088591  29.2301604  97.9941315
  28.1584222  29.2303466  97.8805688  29.4121078  28.4834339  97.4777350
  44.8441285  35.0662142  99.0587078  45.4819695  34.9468890  98.3550418
  44.7262128  36.0142986  99.1175030  41.6530991  35.0189571  98.9948602
  41.3149503  34.9030635  98.1069137  42.5220759  34.6180736  98.9749608
  37.5117807  36.8725047  94.9845493  36.9482672  36.7814984  94.2161781
  37.3970202  36.0524951  95.4647986  42.1350774  36.1724422 104.9534808
  42.1239415  35.7777221 104.0815312  42.2971414  35.4390495 105.5468579
  35.0582239  38.3676239  97.8229714  35.8503531  38.0267063  97.4076013
  35.2978889  38.4771214  98.7431867  43.0917366  40.5396015  90.2959958
  42.4405345  41.1250095  89.9093972  43.8861728  41.0702210  90.3554996
  37.0172993  37.6285152  90.6947093  37.7903869  37.0814139  90.5559968
  37.3698392  38.4929401  90.9061554  38.8558035  38.9561534 103.9013992
  38.5647901  39.8607165 103.7860658  39.4915020  38.9978062 104.6158061
  39.7814242  36.3338383 100.4915351  40.3777814  36.1094405  99.7772314
  39.8389214  35.5923128 101.0940799  39.3539271  33.7877818  88.3265542
  39.6064791  33.2659339  87.5649005  38.4163830  33.6243963  88.4292226
  44.3982553  32.7913596  96.1340286  45.1845643  32.3733020  95.7830703
  44.6621258  33.6959689  96.3021934  44.5692631  38.2286447  90.8328942
  43.9338464  38.3021073  91.5449847  44.2390037  38.8180045  90.1548022
  49.7990980  32.7288830  97.0373264  50.5316152  32.1588046  97.2711094
  49.0430336  32.3410430  97.4779770  39.0735559  35.6905924  90.5289917
  38.9571817  35.0150827  91.1971002  39.1837819  35.2038298  89.7122070
  41.4167100  35.1516071  94.2336607  41.0525307  34.6246692  94.9449528
  42.2734216  34.7614540  94.0603092  47.3216401  26.4410404 101.4967873
  46.9899726  27.3105815 101.2729088  46.7262014  26.1246688 102.1761903
  41.0572587  30.1805971  89.2297955  41.2246990  31.0486207  89.5968426
  40.8669756  30.3433252  88.3059244  43.8147920  38.6422950 100.8963786
  43.5148643  39.5447988 100.7879593  43.4698980  38.3755133 101.7484938
  37.2660402  35.0936746  96.9300490  36.3410898  34.9612961  97.1378182
  37.5144815  35.8730966  97.4270432  47.2145064  31.1605490  98.5761223
  46.3061942  31.0920898  98.2819984  47.1632660  31.6377435  99.4043048
  41.0361808  32.6363628  90.2144622  40.9161433  33.0820679  91.0530102
  40.3414396  32.9848946  89.6558160  34.6269213  34.7370020  97.7644279
  34.7561594  34.9904499  98.6783691  33.9466664  35.3297728  97.4448934
  38.7968700  45.4067270  93.8634753  38.7192730  46.3575095  93.9423234
  38.1930344  45.0613142  94.5209680  41.2885930  32.5795135 106.5196120
  40.5119264  33.1389056 106.5098985  41.9276493  33.0651918 107.0410990
  49.0806711  29.3621928 100.3539097  48.4381091  29.6554461  99.7078891
  48.5761639  29.2474849 101.1592293  46.7346874  33.1085101  91.0424956
  47.6464730  33.3412488  90.8672654  46.2256521  33.6922146  90.4800035
  39.5432302  35.3880589 106.0814087  40.2846987  35.9265633 105.8048911
  38.8369288  36.0146878 106.2385639  45.0187642  37.5309729 104.6786249
  45.4270998  37.0892140 103.9340881  44.2964903  36.9562357 104.9320441
  41.3718712  32.4682336 102.0519806  42.2179907  32.8921750 102.1954455
  41.3117350  31.8115960 102.7458369  45.3416457  38.0910920  98.4338537
  44.7125319  38.2556634  97.7314605  44.9542119  38.5052529  99.2049502
  49.2205688  39.0265358  95.7882901  48.5356727  39.4064259  95.2379935
  49.3049538  39.6360684  96.5214849  44.5218157  30.1286704 103.7100979
  44.2779089  30.8828765 103.1735255  44.7978088  30.5072052 104.5448226
  46.4756620  36.6725317 102.3878245  46.6873515  37.3157077 101.7112626
  46.4286368  35.8387633 101.9200175  44.0782849  29.2843137  99.2914817
  43.2167328  29.5824391  99.5831554  44.1045284  29.5013536  98.3595850
  40.8944418  37.8285328  95.6988623  41.3582764  38.1073031  94.9093245
  40.6301217  36.9268773  95.5161713  37.7868499  37.3756809  98.6368386
  38.3569857  37.8044078  97.9985870  38.3776611  37.0939394  99.3352572
  39.8313304  33.9508480  92.5078188  40.5337348  34.4029524  92.9752114
  39.4993933  33.3092299  93.1358081  33.5738638  32.2092033  97.8095321
  32.7837692  32.4649562  97.3335432  34.0649886  33.0240371  97.9147362
  47.5902448  39.5497272 100.5600602  48.4119892  39.1477459 100.2783284
  47.5864851  39.4465506 101.5116718  35.5253384  32.5736612  94.7678798
  34.7284547  32.6855306  95.2862294  35.2978976  32.9123264  93.9019689
  41.3559051  39.0981315 102.7161313  41.4203484  39.5601723 103.5519484
  40.6469975  38.4678680 102.8443622  31.8576341  32.4622523 100.2410312
  32.1084380  33.3469533 100.5067888  32.3935890  32.2827125  99.4685404
  55.6808441  35.8936021  96.9085574  54.9272149  35.3243419  96.7529578
  55.8155982  35.8598685  97.8556208  41.0707069  40.7649423  92.5840293
  40.9352744  41.6100959  93.0125141  41.6116882  40.9668701  91.8206227
  34.5236466  38.2824861  93.1568218  35.0360987  39.0768111  93.3073783
  35.1759179  37.5851151  93.0901819  36.3331351  41.3990617  95.2390971
  36.5097980  42.3208582  95.0511955  37.1288185  41.0849036  95.6685351
  42.6975545  41.3872989 106.7140635  42.2539400  40.6009368 106.3961540
  43.3592759  41.5752140 106.0484526  37.4562667  42.9168791 101.2401314
  38.0070092  42.7885854 100.4678307  36.6174143  43.2163680 100.8896206
  44.7956784  41.6675789 104.7422036  44.7775259  42.4884670 104.2502305
  45.7176704  41.5429865 104.9672177  41.2529838  39.1819919 105.5845545
  41.7858174  38.4208207 105.3544853  40.7243919  38.8893571 106.3269699
  44.4199533  24.2879985 101.1139186  44.0763802  25.1781626 101.0378297
  44.7878495  24.0981642 100.2508771  32.4885383  36.6113515  93.9327789
  33.3260605  37.0210524  93.7161496  32.6663651  35.6712957  93.9027982
  44.3849815  34.2788596  89.6211622  43.8696439  35.0493201  89.8600009
  44.1127124  33.6053732  90.2444683  41.9696926  29.1238297  94.6796860
  41.1138523  28.7345147  94.5002499  42.3823878  29.2030258  93.8196645
  43.4996073  26.6584640  99.0788420  42.9960869  26.6214775  98.2656225
  43.7926680  27.5677383  99.1385076  39.7438959  26.7423370  98.0854601
  40.6091956  26.5466178  97.7260491  39.8116468  26.5133721  99.0123958
  49.3584090  37.0320951  91.5564795  48.5813532  36.6932110  91.1119957
  50.0375570  37.0373574  90.8819760  44.1736119  32.1515688  91.4471403
  43.8686254  32.4661837  92.2981546  45.1266561  32.2297108  91.4898736
  42.6182550  38.3105911  93.0964357  42.0903912  37.5758671  92.7837594
  42.1170053  39.0880588  92.8504325  47.5975396  36.5054932  98.2131403
  46.9399071  37.1954193  98.3011532  48.4015796  36.8951364  98.5565389
  37.3501278  28.9725578  95.4570968  37.9245030  28.7500759  94.7244161
  37.9372260  29.0414272  96.2099570  46.4080855  34.8599305  96.2635345
  46.9212737  35.4929296  96.7657054  47.0582079  34.2600500  95.8978705
  37.6770865  31.0030039  89.4766853  36.8408177  31.3404725  89.7976128
  37.5375635  30.8679018  88.5393990  39.6523946  25.8466827  94.1846038
  38.9988358  25.5315844  93.5602652  39.6104420  25.2242567  94.9105861
  40.7635151  36.1286122  86.0999330  39.8562212  35.8975375  86.2990479
  41.2606183  35.3323741  86.2873311  43.6703229  44.8383629  89.0196016
  42.9964928  45.1415326  89.6280974  44.0569051  45.6412709  88.6701473
  42.8861686  32.3348760  98.5093685  41.9684247  32.5563707  98.3515373
  43.3021830  32.4095071  97.6505393  43.6696734  33.7340176  93.6396366
  44.4168553  34.2461573  93.3303488  43.9388323  33.4124228  94.5000759
  41.9423384  36.2298716  90.6223320  41.0334603  35.9457749  90.7195790
  41.9718468  36.6497795  89.7626627  47.1742651  39.8405306  94.3914487
  46.7204979  38.9996216  94.4479678  46.5436618  40.4766704  94.7289268
  46.1175571  30.7697292  95.6215155  45.3798328  30.2574678  95.9525397
  46.3702345  30.3297674  94.8098432  45.6175591  41.6781803  95.3264306
  45.9098565  42.2386860  94.6076671  46.1274211  41.9710364  96.0817465
  46.2187198  23.5473544  96.2156924  46.5246075  22.6870907  95.9282839
  46.9439803  24.1391164  96.0155918  32.5111554  33.9504231  94.6038522
  32.3135954  33.3573591  93.8789589  31.9558218  33.6456441  95.3214461
  40.4908278  33.8427337  96.7233115  40.5456888  32.8901173  96.6475592
  39.6799480  33.9986776  97.2074414  41.6399472  37.7707460  87.9611398
  41.2018902  37.0543319  87.5017036  42.3809913  37.9983575  87.3996490
  38.4300638  32.4604397  94.4823494  37.6168504  32.7598567  94.8888686
  38.9259632  32.0660086  95.1997976  40.5809216  42.4562154  96.4157759
  40.5385395  42.6823000  95.4866291  41.4971915  42.2225528  96.5643560
  44.0274850  32.9246221 103.3138388  44.3824237  33.1517694 104.1732854
  44.6746981  33.2564598 102.6915643  49.7572587  36.0464657  94.0187717
  49.6190485  36.2366253  93.0908906  49.4008805  36.8084040  94.4755768
  37.9214713  30.0322752 100.0984729  38.5614092  29.8911511  99.4007692
  37.0892243  29.7457266  99.7223331  49.7841966  38.1141184  99.0298988
  50.2178473  38.0216473  99.8782042  50.4973547  38.0898685  98.3919004
  38.6975017  39.3325183  96.2119721  39.4915615  38.8375503  96.0102296
  37.9866709  38.8043046  95.8487427  43.5169861  41.7143278 100.5632089
  43.5706883  42.2834215 101.3309805  42.6484642  41.8845163 100.1986126
  35.0057780  33.4768264  92.2879474  34.0755368  33.4152720  92.5049436
  35.1015252  32.9544217  91.4916115  34.9243329  30.0023077  94.8757716
  35.1850146  30.9168411  94.7666876  35.7460501  29.5347520  95.0254329
  36.3968254  31.4160835 102.0456540  37.0691308  31.2078197 101.3969189
  35.5698041  31.2182920 101.6061773  50.6457516  38.1564885 101.5631874
  50.8393406  39.0610695 101.8091149  50.5458134  37.6972304 102.3970459
  42.2993826  28.0422775 104.0622201  41.6521742  28.7412725 103.9686678
  43.0694842  28.4758919 104.4298449  45.7072624  38.3071628 107.1372754
  45.5558131  38.0782179 106.2202838  45.6977304  39.2642229 107.1504099
  42.4757961  35.8803540 102.1219021  43.4050021  36.0314700 101.9487988
  42.0548991  35.9687561 101.2667667  41.2746293  39.9054205  99.8917559
  41.1357378  39.5372989 100.7643497  40.4860889  40.4201844  99.7201516
  41.8694445  45.0063301  91.2343095  42.0446200  44.5351344  92.0488718
  41.1827233  45.6329067  91.4624356  42.8251508  39.2835807  97.2806396
  42.4901340  39.2436577  98.1764046  42.3255453  38.6180523  96.8076807
  36.7995752  34.6903437 102.8058977  36.6615550  33.9583676 103.4070517
  37.7100675  34.6012338 102.5243165  45.7610699  36.6291842  87.5543456
  45.1439870  35.9038670  87.4576509  45.2927188  37.3901202  87.2110530
  39.4278052  34.4023397 102.2942657  40.1377671  33.7616589 102.2529276
  39.3847361  34.6536292 103.2168838  47.4164831  41.3390750 105.2149236
  47.3577377  40.6549970 104.5479819  47.8184349  42.0809740 104.7629862
  36.4355530  48.1552664  98.0082955  36.6752128  48.7871188  98.6861974
  35.5924726  47.8040704  98.2948314  37.5509245  30.8477266  86.6764760
  36.6738712  30.7266067  86.3127007  38.0266998  30.0563344  86.4243649
  47.4182238  39.3030334 103.4463216  46.5309017  38.9656256 103.5689615
  47.9880789  38.5713365 103.6831981  29.0711385  35.6354426  96.7706267
  29.7582425  35.3216156  96.1827283  28.9159514  36.5395790  96.4973519
  33.8746108  30.5244622 101.1991291  33.7904296  29.9170292 100.4641701
  33.0528814  31.0153641 101.2000787  40.9483392  43.9631786 100.4124459
  40.8753563  44.7686758 100.9243764  40.5060785  44.1623752  99.5872481
  40.7373171  43.2003556  93.9227281  39.9540693  43.7425237  94.0165505
  41.4365917  43.7177536  94.3221522  44.0469821  29.0098186  96.5661486
  44.5438521  28.2568148  96.2462556  43.2756803  29.0462503  96.0004695
  51.8999579  34.7138551  98.2079778  51.8889455  35.5963267  97.8373711
  51.0316958  34.3610102  98.0134315  43.4082075  43.8618620 102.5682618
  44.1210047  44.4966085 102.4958519  42.9172104  43.9582486 101.7522620
  45.1299602  37.7669873  94.1399910  44.1955881  37.8871336  93.9704614
  45.3076271  36.8642340  93.8759919  40.6304790  31.1515569  96.2933171
  40.2602578  30.5986609  96.9814076  41.1263883  30.5473702  95.7408171
  48.5172154  33.6087192  94.6749944  48.9832606  34.4415184  94.6010246
  48.9679654  33.1432174  95.3795202  38.4593989  41.6113064 103.3888189
  39.1603448  42.2449547 103.5417583  37.9889104  41.9527795 102.6283828
  46.5848385  39.9531014  91.6736096  46.8608229  39.8387608  92.5829970
  45.7152883  39.5548499  91.6348269  46.4888816  25.9767779  98.7140845
  45.5751896  26.2072006  98.8823052  46.9181918  26.0606223  99.5654877
  46.2595275  34.1657671 101.2140739  45.6066725  34.4133579 100.5593192
  46.6375655  33.3521810 100.8803216  43.2202449  44.2017365  95.3168909
  43.4024843  43.3839020  95.7796662  44.0435435  44.4185057  94.8793799
  43.5544614  43.1285550  92.5783958  44.0832381  42.6178004  91.9654120
  43.8172834  42.8128080  93.4429491  42.3082848  34.9077482 107.7006776
  41.6323485  34.8071612 108.3709151  43.1310482  34.7516696 108.1642773
  34.0561707  41.1449419 100.3219291  34.6415144  40.3993107 100.4547196
  33.8586545  41.4553376 101.2055955  36.9100362  44.1800666  95.3381734
  36.2410737  44.6646794  94.8545774  36.7713232  44.4269887  96.2525112
  28.6479362  33.7155019  99.0423735  28.6863461  33.1818610  99.8360853
  28.1419654  33.1890225  98.4234712  41.0505631  46.2144410 101.9364392
  41.6023939  46.3776031 102.7013477  41.3911824  46.8048848 101.2644417
  45.9016505  41.0405667 107.7913047  46.4456409  41.6535626 107.2968001
  45.3203350  41.5985246 108.3080060  32.2787939  32.4419121  92.1177666
  32.5741380  31.5329800  92.0644720  31.3775975  32.4206861  91.7958668
  44.1874018  44.1626385  98.9228074  44.0625157  43.3616125  98.4139020
  44.8453109  44.6572579  98.4342044  35.8082186  30.5175118  98.1005215
  35.0868772  31.1311086  97.9612688  36.5975442  31.0532883  98.0221860
  46.2508926  41.9635405 100.5507624  45.3039262  41.8440757 100.4785951
  46.5991699  41.0757904 100.6333886  34.0075781  30.1233219  92.2416991
  33.6788487  29.2430598  92.0592097  34.3615151  30.0680888  93.1293380
  43.2555360  41.7588122  96.7511977  43.1080322  40.8304829  96.9319547
  44.0808853  41.7808212  96.2669052  37.1217604  30.4106189  92.6092469
  37.4613676  30.9392110  91.8871077  37.5689724  30.7486595  93.3851035
  46.8589481  42.5816680  97.8376849  47.7836029  42.3759542  97.7001300
  46.6904785  42.3333082  98.7466191  39.8161045  28.7943240 102.0595537
  39.4757865  27.9951053 102.4616217  39.1100051  29.0944950 101.4872370
  40.4677517  25.8792552 100.5122860  41.2903586  25.4053030 100.3901750
  40.7115580  26.6583036 101.0121546  39.1085751  28.9080810  90.8085761
  39.8294114  29.2862063  90.3049478  38.4851055  29.6269687  90.9120739
  43.2516874  29.6125959  91.7444094  43.4680488  30.4950597  91.4432922
  42.7710941  29.2212173  91.0149736  37.9916095  32.5711673  98.3214838
  37.8460676  32.8851976  99.2139120  37.5141299  33.1896573  97.7685737
  39.8512478  29.5614221  98.3695728  39.8374047  28.6655314  98.0328026
  40.5684906  29.5684884  99.0034014  41.7038609  29.9951561 100.4148855
  41.4456387  30.9168631 100.4133186  41.1723649  29.5981995 101.1049320
  46.6484798  43.1002348  93.1938941  46.8221675  42.5348770  92.4412793
  47.1413689  43.9003243  93.0118431  32.4661757  35.1117017 101.2602500
  31.9215226  35.8876825 101.3922774  33.3441107  35.4587821 101.1021621
  39.2549374  28.4428601  93.6383298  39.3765285  27.5145247  93.8374186
  38.9651417  28.4567287  92.7261614  42.1240565  26.1283511  96.7750018
  42.1462261  26.1922844  95.8201998  42.5408624  25.2888020  96.9690524
  52.5024189  35.8638771  94.8129241  52.9455335  35.1146096  94.4148364
  51.6250699  35.8548907  94.4302973  47.6359970  42.4169112  90.2935839
  48.3310875  43.0375805  90.5123154  47.9783120  41.5664464  90.5688217
  49.5351393  39.8668818  91.8223170  50.0602717  40.2056091  91.0972490
  49.4473746  38.9315833  91.6386304  41.1971442  43.7802891 103.9513046
  41.5058568  43.5352038 104.8235746  41.9946924  43.9849530 103.4631917
  41.2192054  45.9340801  96.1818423  40.7797044  45.4417180  96.8751280
  41.9700171  45.3913769  95.9410498  33.6984393  42.1252342  96.1843051
  34.5242413  41.8256114  95.8041695  33.3478445  41.3559964  96.6332840
  38.6665926  41.4778810  98.2540725  38.0445935  40.8149515  97.9542953
  39.3370793  41.5039942  97.5714372  31.8992998  40.0438668  97.1431985
  31.0624906  39.6160843  96.9615986  31.8716644  40.2371112  98.0802776
  49.2245299  40.5001721 107.1274368  48.4340843  40.4825860 106.5878867
  48.9878654  41.0390015 107.8823404  49.3443174  37.3494188 104.4407096
  49.3941179  37.1844195 105.3822619  49.2357098  36.4821447 104.0504977
  38.2279433  40.0282734  91.7299185  38.3767553  40.7118198  91.0765858
  39.0345877  40.0087824  92.2448641  46.6346937  33.3325116 105.7566403
  47.5356800  33.1931581 105.4650401  46.7094911  33.4979571 106.6964580
  40.9689742  30.7091971 104.6019589  40.0993052  31.0025537 104.3302178
  41.2049222  31.2932416 105.3226853  50.8461371  39.7691129 104.6849118
  50.5546180  40.1321110 105.5212579  50.2333503  39.0558138 104.5062450
  52.0457054  37.3344009  97.2051688  52.8803945  37.7733813  97.3689248
  52.1816182  36.8582662  96.3859934  49.0948559  34.8923744 103.1529176
  49.5702681  35.0851390 102.3448027  48.1714125  34.9482930 102.9072560
  35.9832066  36.0547911  92.7360254  35.7378108  35.1510241  92.9340464
  36.1527981  36.0565062  91.7939732  43.6728776  26.9271588 102.1185010
  44.1910720  27.6632614 101.7931498  43.3183909  27.2335581 102.9531769
  35.2527714  31.7876269  90.2346416  34.5596959  31.8620624  89.5786452
  35.0079466  31.0236612  90.7567933  43.9241370  23.3471870  97.6385906
  44.2043124  22.6795059  98.2646333  44.7091977  23.5400966  97.1260570
  41.7274839  42.5230864  89.2010933  41.1548806  43.1421051  88.7481405
  42.3007632  43.0730226  89.7350855  47.7950228  31.7689504 101.3857481
  48.7467651  31.8687602 101.4069706  47.6253679  30.9767773 101.8955566
  45.8164608  28.8545087 101.5716882  45.2214540  29.1350100 100.8763371
  45.5314305  29.3438988 102.3433623  44.9472098  42.8068014  90.3319515
  45.8802772  42.7413576  90.5352390  44.8595311  43.6424281  89.8734048
  50.2738306  34.9895624 100.4999781  50.2414626  34.0511624 100.6859465
  50.8838930  35.0679660  99.7665606  42.1121637  33.8591677  86.5426985
  43.0580742  33.7297885  86.6115403  41.7335882  33.1206339  87.0196413
  50.4232795  31.7806667 100.5458064  49.9071843  30.9965124 100.3587993
  51.3072743  31.4525384 100.7104584  48.0843522  25.5247683  96.5053877
  47.8868343  25.2162771  97.3897209  48.6943227  26.2509322  96.6351807
  56.0914856  36.0511631  99.6405818  56.8218245  35.7896919 100.2013521
  55.4821802  35.3140353  99.6807886  54.1730153  34.1919493 100.2380269
  53.4463317  34.0575458  99.6296761  53.7577440  34.4996322 101.0436987
  41.9960330  37.9109423 108.0027642  42.9163339  38.0888022 108.1967689
  41.9609913  36.9665468 107.8507341  40.2964554  31.7841653  86.4781870
  39.3896010  31.4874766  86.5544584  40.5740535  31.4871471  85.6116157
  31.2142495  33.1048017  96.9280917  30.8945279  32.2513325  96.6355291
  30.6675923  33.3196595  97.6838884  34.9922402  35.8210458 100.6450423
  35.2108412  36.7527565 100.6638457  35.4048176  35.4618432 101.4305227
  41.9126620  26.3278543  92.6326112  41.1027348  25.9825628  93.0081358
  42.6011037  26.0186087  93.2213723  43.8417168  25.4056590  94.2550408
  44.3948207  25.8252043  94.9140431  44.0787255  24.4792338  94.2973364
  39.0663339  28.6428588  86.6193850  39.9282503  28.9683487  86.8789667
  39.2513683  27.8560084  86.1066915  31.0830755  36.7250928  98.8974038
  30.3894226  36.3104881  98.3843993  31.8303746  36.7671465  98.3007457
  47.2195975  27.5157115  93.7629073  46.6394644  28.1741919  93.3807125
  46.9531908  26.6934459  93.3516490  45.6699542  26.9162173  95.9650393
  46.1699320  27.0278707  95.1564712  46.3135150  26.6123225  96.6051201
  32.9967497  36.6569182  96.7740053  32.9738185  36.7556869  95.8221936
  33.3068134  37.5034333  97.0957219  35.6554875  38.7145337 100.8886668
  36.6098129  38.6829279 100.8216599  35.4567399  38.2535961 101.7036894
  36.2454257  37.2846453 103.4557465  37.0647146  37.7790532 103.4792303
  36.5191065  36.3678421 103.4275033  46.0020853  29.6757205  92.8185421
  45.1146708  29.9606856  92.6005616  46.4174842  29.5150969  91.9712698
  49.3535390  29.7003726  96.5339760  50.1295780  30.1900179  96.8064377
  48.6283524  30.1261780  96.9911630  51.7907948  30.4131345  97.5913701
  52.3852439  30.1727081  96.8807009  51.8634532  29.6938476  98.2187237
  34.0105104  44.2564956  97.9056866  33.8759572  43.4965357  97.3394864
  33.5937166  44.9805856  97.4385654  45.9761877  35.1911741  93.0335711
  45.9197079  35.6480293  92.1943343  46.5290220  34.4302426  92.8558554
  49.7866683  30.9801473  93.8585831  49.5303617  30.5798109  94.6894038
  49.1619551  31.6945267  93.7335970  54.0979021  33.7197546  96.3657122
  53.5378579  33.7890736  97.1388684  53.4922524  33.5438531  95.6456618
  37.1674230  45.1534273  98.1175308  37.0506614  46.0979706  98.0153998
  36.3466676  44.8507835  98.5061107  46.7096656  36.3816522  90.3288240
  46.6545460  36.2160794  89.3876684  46.0842712  37.0892555  90.4850430
  44.0242564  38.6865434 109.6541803  44.8933723  38.8606087 109.2928438
  43.5449315  39.5059851 109.5317532  40.0192782  25.8824631  89.9073559
  40.0071452  26.8266471  90.0641829  40.9116204  25.6994777  89.6133020
  38.1928744  45.8062535 101.3331237  39.0955991  45.8386145 101.6497732
  37.9666114  44.8762986 101.3477572  39.9482346  44.5593522  97.9941315
  38.9977977  44.5595383  97.8805688  40.2514832  43.8126256  97.4777350
  43.8344901  22.4767408  94.1619495  43.0677297  21.9225895  94.3076178
  44.2455606  22.5489277  95.0233647  55.6835039  50.3954060  99.0587078
  56.3213449  50.2760808  98.3550418  55.5655882  51.3434904  99.1175030
  52.4924746  50.3481488  98.9948602  52.1543257  50.2322553  98.1069137
  53.3614514  49.9472653  98.9749608  48.3511561  52.2016965  94.9845493
  47.7876426  52.1106902  94.2161781  48.2363956  51.3816869  95.4647986
  52.9744529  51.5016340 104.9534808  52.9633169  51.1069138 104.0815312
  53.1365168  50.7682413 105.5468579  45.8975993  53.6968156  97.8229714
  46.6897285  53.3558981  97.4076013  46.1372643  53.8063131  98.7431867
  47.8566747  52.9577070  90.6947093  48.6297623  52.4106057  90.5559968
  48.2092146  53.8221319  90.9061554  49.6951790  54.2853452 103.9013992
  49.4041656  55.1899083 103.7860658  50.3308774  54.3269979 104.6158061
  50.6207997  51.6630300 100.4915351  51.2171569  51.4386323  99.7772314
  50.6782968  50.9215046 101.0940799  55.2376308  48.1205514  96.1340286
  56.0239397  47.7024937  95.7830703  55.5015012  49.0251606  96.3021934
  60.6384735  48.0580747  97.0373264  61.3709907  47.4879964  97.2711094
  59.8824091  47.6702348  97.4779770  52.2560855  50.4807989  94.2336607
  51.8919062  49.9538610  94.9449528  53.1127971  50.0906458  94.0603092
  58.1610155  41.7702321 101.4967873  57.8293480  42.6397732 101.2729088
  57.5655769  41.4538605 102.1761903  54.6541675  53.9714867 100.8963786
  54.3542398  54.8739906 100.7879593  54.3092734  53.7047051 101.7484938
  48.1054156  50.4228664  96.9300490  47.1804653  50.2904878  97.1378182
  48.3538570  51.2022883  97.4270432  58.0538819  46.4897408  98.5761223
  57.1455696  46.4212816  98.2819984  58.0026414  46.9669352  99.4043048
  45.4662967  50.0661938  97.7644279  45.5955349  50.3196417  98.6783691
  44.7860419  50.6589646  97.4448934  49.6362455  60.7359188  93.8634753
  49.5586484  61.6867013  93.9423234  49.0324098  60.3905060  94.5209680
  52.1279684  47.9087053 106.5196120  51.3513018  48.4680973 106.5098985
  52.7670247  48.3943836 107.0410990  59.9200465  44.6913846 100.3539097
  59.2774845  44.9846379  99.7078891  59.4155394  44.5766766 101.1592293
  57.5740629  48.4377019  91.0424956  58.4858485  48.6704406  90.8672654
  57.0650276  49.0214063  90.4800035  50.3826057  50.7172506 106.0814087
  51.1240741  51.2557550 105.8048911  49.6763042  51.3438795 106.2385639
  55.8581396  52.8601647 104.6786249  56.2664752  52.4184057 103.9340881
  55.1358658  52.2854274 104.9320441  52.2112466  47.7974254 102.0519806
  53.0573662  48.2213667 102.1954455  52.1511104  47.1407878 102.7458369
  56.1810211  53.4202838  98.4338537  55.5519073  53.5848552  97.7314605
  55.7935873  53.8344447  99.2049502  60.0599443  54.3557275  95.7882901
  59.3750481  54.7356177  95.2379935  60.1443292  54.9652602  96.5214849
  55.3611912  45.4578622 103.7100979  55.1172844  46.2120683 103.1735255
  55.6371842  45.8363970 104.5448226  57.3150375  52.0017234 102.3878245
  57.5267270  52.6448994 101.7112626  57.2680123  51.1679551 101.9200175
  54.9176603  44.6135055  99.2914817  54.0561083  44.9116309  99.5831554
  54.9439038  44.8305454  98.3595850  51.7338173  53.1577246  95.6988623
  52.1976518  53.4364949  94.9093245  51.4694971  52.2560690  95.5161713
  48.6262254  52.7048727  98.6368386  49.1963611  53.1335996  97.9985870
  49.2170366  52.4231312  99.3352572  50.6707059  49.2800398  92.5078188
  51.3731102  49.7321442  92.9752114  50.3387687  48.6384217  93.1358081
  49.1187420  47.8712155 106.8829397  48.4886081  48.5528435 107.1164794
  49.0123508  47.7595236 105.9382535  44.4132393  47.5383951  97.8095321
  43.6231447  47.7941479  97.3335432  44.9043640  48.3532289  97.9147362
  58.4296202  54.8789190 100.5600602  59.2513646  54.4769377 100.2783284
  58.4258605  54.7757424 101.5116718  46.3647138  47.9028530  94.7678798
  45.5678302  48.0147224  95.2862294  46.1372730  48.2415182  93.9019689
  52.1952806  54.4273233 102.7161313  52.2597238  54.8893640 103.5519484
  51.4863730  53.7970598 102.8443622  42.6970096  47.7914441 100.2410312
  42.9478134  48.6761451 100.5067888  43.2329644  47.6119043  99.4685404
  66.5202196  51.2227938  96.9085574  65.7665904  50.6535336  96.7529578
  66.6549737  51.1890603  97.8556208  51.9100824  56.0941341  92.5840293
  51.7746498  56.9392876  93.0125141  52.4510636  56.2960618  91.8206227
  48.3968163  42.1732920 109.2454648  48.0035109  41.6199119 109.9202292
  49.2134304  42.4843499 109.6361166  45.3630221  53.6116779  93.1568218
  45.8754742  54.4060029  93.3073783  46.0152934  52.9143069  93.0901819
  47.1725106  56.7282535  95.2390971  47.3491734  57.6500500  95.0511955
  47.9681939  56.4140954  95.6685351  51.3136124  43.5890800 106.8374905
  52.0545838  44.1897953 106.7579367  51.5454047  42.8468437 106.2792947
  46.4577462  48.7747167 105.1153134  46.3430977  47.8732424 105.4160233
  45.6021980  49.0210864 104.7637951  53.5369300  56.7164907 106.7140635
  53.0933154  55.9301286 106.3961540  54.1986514  56.9044058 106.0484526
  48.2956421  58.2460709 101.2401314  48.8463846  58.1177772 100.4678307
  47.4567897  58.5455598 100.8896206  55.6350538  56.9967707 104.7422036
  55.6169013  57.8176588 104.2502305  56.5570458  56.8721782 104.9672177
  52.0923592  54.5111837 105.5845545  52.6251929  53.7500125 105.3544853
  51.5637673  54.2185488 106.3269699  55.2593287  39.6171902 101.1139186
  54.9157557  40.5073544 101.0378297  55.6272250  39.4273560 100.2508771
  43.3279138  51.9405433  93.9327789  44.1654360  52.3502441  93.7161496
  43.5057405  51.0004875  93.9027982  52.8090681  44.4530214  94.6796860
  51.9532277  44.0637065  94.5002499  53.2217633  44.5322175  93.8196645
  54.3389828  41.9876558  99.0788420  53.8354623  41.9506693  98.2656225
  54.6320434  42.8969300  99.1385076  50.5832713  42.0715287  98.0854601
  51.4485710  41.8758096  97.7260491  50.6510222  41.8425639  99.0123958
  60.1977844  52.3612868  91.5564795  59.4207287  52.0224028  91.1119957
  60.8769325  52.3665491  90.8819760  53.4576305  53.6397829  93.0964357
  52.9297666  52.9050589  92.7837594  52.9563808  54.4172505  92.8504325
  58.4369151  51.8346850  98.2131403  57.7792825  52.5246111  98.3011532
  59.2409550  52.2243281  98.5565389  48.1895032  44.3017495  95.4570968
  48.7638784  44.0792677  94.7244161  48.7766015  44.3706190  96.2099570
  57.2474610  50.1891222  96.2635345  57.7606491  50.8221214  96.7657054
  57.8975834  49.5892418  95.8978705  50.4917700  41.1758744  94.1846038
  49.8382113  40.8607761  93.5602652  50.4498174  40.5534485  94.9105861
  54.5096984  60.1675546  89.0196016  53.8358683  60.4707243  89.6280974
  54.8962806  60.9704627  88.6701473  53.7255441  47.6640678  98.5093685
  52.8078002  47.8855625  98.3515373  54.1415584  47.7386988  97.6505393
  54.5090488  49.0632093  93.6396366  55.2562307  49.5753491  93.3303488
  54.7782078  48.7416146  94.5000759  58.0136406  55.1697224  94.3914487
  57.5598733  54.3288134  94.4479678  57.3830373  55.8058622  94.7289268
  56.9569325  46.0989210  95.6215155  56.2192082  45.5866596  95.9525397
  57.2096099  45.6589591  94.8098432  56.4569345  57.0073720  95.3264306
  56.7492320  57.5678777  94.6076671  56.9667966  57.3002281  96.0817465
  57.0580953  38.8765462  96.2156924  57.3639830  38.0162825  95.9282839
  57.7833558  39.4683082  96.0155918  43.3505309  49.2796148  94.6038522
  43.1529709  48.6865509  93.8789589  42.7951973  48.9748358  95.3214461
  51.3302033  49.1719255  96.7233115  51.3850642  48.2193091  96.6475592
  50.5193235  49.3278694  97.2074414  49.2694392  47.7896314  94.4823494
  48.4562258  48.0890485  94.8888686  49.7653387  47.3952003  95.1997976
  51.4202970  57.7854071  96.4157759  51.3779149  58.0114918  95.4866291
  52.3365669  57.5517446  96.5643560  54.8668604  48.2538139 103.3138388
  55.2217992  48.4809612 104.1732854  55.5140735  48.5856516 102.6915643
  60.5966341  51.3756575  94.0187717  60.4584240  51.5658171  93.0908906
  60.2402560  52.1375958  94.4755768  48.7608467  45.3614670 100.0984729
  49.4007847  45.2203429  99.4007692  47.9285998  45.0749183  99.7223331
  60.6235721  53.4433102  99.0298988  61.0572227  53.3508391  99.8782042
  61.3367301  53.4190602  98.3919004  49.5368771  54.6617100  96.2119721
  50.3309370  54.1667421  96.0102296  48.8260464  54.1334964  95.8487427
  54.3563616  57.0435196 100.5632089  54.4100638  57.6126132 101.3309805
  53.4878397  57.2137081 100.1986126  45.8451535  48.8060182  92.2879474
  44.9149123  48.7444638  92.5049436  45.9409007  48.2836135  91.4916115
  45.7637084  45.3314995  94.8757716  46.0243901  46.2460328  94.7666876
  46.5854256  44.8639438  95.0254329  47.2362009  46.7452752 102.0456540
  47.9085062  46.5370114 101.3969189  46.4091796  46.5474838 101.6061773
  61.4851270  53.4856803 101.5631874  61.6787160  54.3902613 101.8091149
  61.3851888  53.0264222 102.3970459  53.1387581  43.3714693 104.0622201
  52.4915496  44.0704643 103.9686678  53.9088596  43.8050837 104.4298449
  56.5466379  53.6363545 107.1372754  56.3951885  53.4074097 106.2202838
  56.5371058  54.5934147 107.1504099  53.3151715  51.2095458 102.1219021
  54.2443775  51.3606618 101.9487988  52.8942745  51.2979479 101.2667667
  52.1140047  55.2346122  99.8917559  51.9751133  54.8664907 100.7643497
  51.3254643  55.7493762  99.7201516  52.7088199  60.3355219  91.2343095
  52.8839955  59.8643262  92.0488718  52.0220987  60.9620985  91.4624356
  53.6645262  54.6127725  97.2806396  53.3295095  54.5728495  98.1764046
  53.1649208  53.9472441  96.8076807  47.6389506  50.0195355 102.8058977
  47.5009304  49.2875594 103.4070517  48.5494430  49.9304255 102.5243165
  50.2671807  49.7315314 102.2942657  50.9771425  49.0908507 102.2529276
  50.2241115  49.9828209 103.2168838  58.2558586  56.6682668 105.2149236
  58.1971132  55.9841888 104.5479819  58.6578104  57.4101658 104.7629862
  48.9800741  46.7180532 104.1138297  48.4438098  46.2671271 104.7659893
  48.3917449  46.8526441 103.3708761  47.2749284  63.4844582  98.0082955
  47.5145883  64.1163106  98.6861974  46.4318481  63.1332622  98.2948314
  58.2575993  54.6322252 103.4463216  57.3702772  54.2948174 103.5689615
  58.8274544  53.9005283 103.6831981  39.9105140  50.9646343  96.7706267
  40.5976180  50.6508074  96.1827283  39.7553269  51.8687708  96.4973519
  44.7139862  45.8536540 101.1991291  44.6298051  45.2462210 100.4641701
  43.8922569  46.3445558 101.2000787  51.7877146  59.2923704 100.4124459
  51.7147318  60.0978676 100.9243764  51.3454539  59.4915670  99.5872481
  51.5766926  58.5295474  93.9227281  50.7934448  59.0717154  94.0165505
  52.2759671  59.0469454  94.3221522  54.8863576  44.3390104  96.5661486
  55.3832276  43.5860066  96.2462556  54.1150557  44.3754420  96.0004695
  62.7393333  50.0430469  98.2079778  62.7283210  50.9255185  97.8373711
  61.8710713  49.6902020  98.0134315  54.2475830  59.1910538 102.5682618
  54.9603802  59.8258003 102.4958519  53.7565858  59.2874404 101.7522620
  55.9693357  53.0961791  94.1399910  55.0349635  53.2163253  93.9704614
  56.1470025  52.1934258  93.8759919  51.4698545  46.4807487  96.2933171
  51.0996332  45.9278527  96.9814076  51.9657637  45.8765620  95.7408171
  59.3565908  48.9379110  94.6749944  59.8226360  49.7707102  94.6010246
  59.8073409  48.4724092  95.3795202  49.2987743  56.9404982 103.3888189
  49.9997203  57.5741465 103.5417583  48.8282858  57.2819713 102.6283828
  57.4242139  55.2822931  91.6736096  57.7001983  55.1679526  92.5829970
  56.5546638  54.8840416  91.6348269  57.3282571  41.3059697  98.7140845
  56.4145651  41.5363924  98.8823052  57.7575672  41.3898141  99.5654877
  57.0989029  49.4949589 101.2140739  56.4460479  49.7425496 100.5593192
  57.4769409  48.6813727 100.8803216  54.0596203  59.5309282  95.3168909
  54.2418598  58.7130938  95.7796662  54.8829189  59.7476974  94.8793799
  54.3938369  58.4577467  92.5783958  54.9226135  57.9469922  91.9654120
  54.6566588  58.1419998  93.4429491  53.1476602  50.2369400 107.7006776
  52.4717239  50.1363529 108.3709151  53.9704236  50.0808614 108.1642773
  44.8955461  56.4741337 100.3219291  45.4808898  55.7285025 100.4547196
  44.6980300  56.7845293 101.2055955  47.7494117  59.5092584  95.3381734
  47.0804492  59.9938712  94.8545774  47.6106986  59.7561804  96.2525112
  39.4873116  49.0446937  99.0423735  39.5257216  48.5110528  99.8360853
  38.9813409  48.5182142  98.4234712  51.8899385  61.5436328 101.9364392
  52.4417693  61.7067949 102.7013477  52.2305579  62.1340765 101.2644417
  46.8663878  43.8911477 102.5386277  46.9305205  44.7526308 102.1263675
  46.8030999  43.2785479 101.8058635  46.3416151  45.9634610 106.1859311
  46.9688190  45.5811687 106.7996835  45.4844070  45.7448812 106.5515004
  56.7410259  56.3697585 107.7913047  57.2850163  56.9827543 107.2968001
  56.1597104  56.9277163 108.3080060  43.1181694  47.7711039  92.1177666
  43.4135135  46.8621717  92.0644720  42.2169729  47.7498778  91.7958668
  55.0267772  59.4918303  98.9228074  54.9018912  58.6908043  98.4139020
  55.6846864  59.9864496  98.4342044  46.6475941  45.8467036  98.1005215
  45.9262526  46.4603003  97.9612688  47.4369196  46.3824800  98.0221860
  57.0902681  57.2927323 100.5507624  56.1433016  57.1732674 100.4785951
  57.4385454  56.4049821 100.6333886  49.4502254  43.1821462 104.3745866
  49.9736656  43.4283759 105.1372176  49.2314587  44.0141497 103.9549004
  44.8469535  45.4525137  92.2416991  44.5182241  44.5722516  92.0592097
  45.2008906  45.3972805  93.1293380  54.0949114  57.0880039  96.7511977
  53.9474077  56.1596747  96.9319547  54.9202608  57.1100130  96.2669052
  47.9611358  45.7398106  92.6092469  48.3007431  46.2684028  91.8871077
  48.4083479  46.0778513  93.3851035  57.6983236  57.9108598  97.8376849
  58.6229783  57.7051459  97.7001300  57.5298539  57.6624999  98.7466191
  50.6554799  44.1235157 102.0595537  50.3151620  43.3242970 102.4616217
  49.9493806  44.4236868 101.4872370  51.3071271  41.2084470 100.5122860
  52.1297340  40.7344948 100.3901750  51.5509335  41.9874953 101.0121546
  49.9479506  44.2372728  90.8085761  50.6687868  44.6153981  90.3049478
  49.3244810  44.9561605  90.9120739  48.8309850  47.9003590  98.3214838
  48.6854431  48.2143893  99.2139120  48.3535053  48.5188491  97.7685737
  50.6906233  44.8906138  98.3695728  50.6767801  43.9947232  98.0328026
  51.4078661  44.8976802  99.0034014  52.5432363  45.3243478 100.4148855
  52.2850141  46.2460549 100.4133186  52.0117404  44.9273913 101.1049320
  57.4878552  58.4294266  93.1938941  57.6615430  57.8640688  92.4412793
  57.9807443  59.2295160  93.0118431  43.3055512  50.4408935 101.2602500
  42.7608980  51.2168743 101.3922774  44.1834862  50.7879739 101.1021621
  50.0943129  43.7720519  93.6383298  50.2159040  42.8437165  93.8374186
  49.8045171  43.7859204  92.7261614  52.9634319  41.4575429  96.7750018
  52.9856016  41.5214762  95.8201998  53.3802378  40.6179938  96.9690524
  63.3417943  51.1930689  94.8129241  63.7849089  50.4438014  94.4148364
  62.4644454  51.1840825  94.4302973  58.4753725  57.7461030  90.2935839
  59.1704629  58.3667723  90.5123154  58.8176875  56.8956381  90.5688217
  44.0921534  49.5678831 104.1532656  43.3503270  49.7161466 104.7397287
  43.7714278  49.8287097 103.2899406  60.3745148  55.1960735  91.8223170
  60.8996472  55.5348008  91.0972490  60.2867500  54.2607751  91.6386304
  52.0365196  59.1094809 103.9513046  52.3452323  58.8643956 104.8235746
  52.8340679  59.3141448 103.4631917  52.0585809  61.2632719  96.1818423
  51.6190799  60.7709097  96.8751280  52.8093925  60.7205686  95.9410498
  44.5378148  57.4544260  96.1843051  45.3636167  57.1548032  95.8041695
  44.1872200  56.6851882  96.6332840  49.5059681  56.8070728  98.2540725
  48.8839690  56.1441433  97.9542953  50.1764548  56.8331860  97.5714372
  42.7386753  55.3730586  97.1431985  41.9018661  54.9452760  96.9615986
  42.7110398  55.5663029  98.0802776  49.5784208  45.2852516 107.8473231
  49.6272364  46.1614639 107.4651000  50.1206722  44.7429909 107.2744874
  60.0639054  55.8293639 107.1274368  59.2734598  55.8117778 106.5878867
  59.8272408  56.3681933 107.8823404  60.1836929  52.6786106 104.4407096
  60.2334934  52.5136113 105.3822619  60.0750852  51.8113365 104.0504977
  49.0673188  55.3574651  91.7299185  49.2161308  56.0410116  91.0765858
  49.8739631  55.3379741  92.2448641  57.4740691  48.6617034 105.7566403
  58.3750554  48.5223498 105.4650401  57.5488666  48.8271488 106.6964580
  51.8083497  46.0383888 104.6019589  50.9386806  46.3317454 104.3302178
  52.0442977  46.6224333 105.3226853  61.6855126  55.0983047 104.6849118
  61.3939934  55.4613028 105.5212579  61.0727257  54.3850055 104.5062450
  62.8850808  52.6635927  97.2051688  63.7197699  53.1025731  97.3689248
  63.0209937  52.1874580  96.3859934  59.9342314  50.2215662 103.1529176
  60.4096436  50.4143308 102.3448027  59.0107879  50.2774847 102.9072560
  46.8225821  51.3839829  92.7360254  46.5771863  50.4802159  92.9340464
  46.9921735  51.3856979  91.7939732  54.5122530  42.2563505 102.1185010
  55.0304474  42.9924532 101.7931498  54.1577663  42.5627499 102.9531769
  46.0921468  47.1168186  90.2346416  45.3990713  47.1912541  89.5786452
  45.8473220  46.3528530  90.7567933  54.7635125  38.6763788  97.6385906
  55.0436878  38.0086977  98.2646333  55.5485732  38.8692883  97.1260570
  52.5668593  57.8522782  89.2010933  51.9942560  58.4712969  88.7481405
  53.1401387  58.4022143  89.7350855  58.6343983  47.0981422 101.3857481
  59.5861406  47.1979519 101.4069706  58.4647433  46.3059690 101.8955566
  56.6558362  44.1837005 101.5716882  56.0608295  44.4642018 100.8763371
  56.3708059  44.6730906 102.3433623  55.7865853  58.1359932  90.3319515
  56.7196526  58.0705493  90.5352390  55.6989066  58.9716199  89.8734048
  61.1132061  50.3187541 100.4999781  61.0808381  49.3803542 100.6859465
  61.7232684  50.3971578  99.7665606  61.2626549  47.1098585 100.5458064
  60.7465598  46.3257041 100.3587993  62.1466498  46.7817301 100.7104584
  58.9237276  40.8539600  96.5053877  58.7262097  40.5454689  97.3897209
  59.5336982  41.5801239  96.6351807  66.9308611  51.3803548  99.6405818
  67.6611999  51.1188836 100.2013521  66.3215556  50.6432270  99.6807886
  65.0123908  49.5211411 100.2380269  64.2857071  49.3867376  99.6296761
  64.5971195  49.8288239 101.0436987  52.8354084  53.2401341 108.0027642
  53.7557094  53.4179940 108.1967689  52.8003667  52.2957386 107.8507341
  42.0536249  48.4339934  96.9280917  41.7339033  47.5805242  96.6355291
  41.5069677  48.6488512  97.6838884  45.8316157  51.1502375 100.6450423
  46.0502166  52.0819483 100.6638457  46.2441931  50.7910350 101.4305227
  52.7520374  41.6570461  92.6326112  51.9421103  41.3117545  93.0081358
  53.4404791  41.3478004  93.2213723  54.6810923  40.7348507  94.2550408
  55.2341961  41.1543961  94.9140431  54.9181009  39.8084255  94.2973364
  50.7044022  46.7235581 110.0353172  50.6040749  47.6729938 109.9665263
  50.4865564  46.3953820 109.1629242  41.9224509  52.0542846  98.8974038
  41.2287981  51.6396798  98.3843993  42.6697500  52.0963382  98.3007457
  58.0589730  42.8449032  93.7629073  57.4788399  43.5033837  93.3807125
  57.7925663  42.0226377  93.3516490  56.5093296  42.2454090  95.9650393
  57.0093075  42.3570625  95.1564712  57.1528904  41.9415143  96.6051201
  50.5675292  50.1532720 108.8518234  50.0842374  50.9533080 109.0582123
  50.6536231  50.1640665 107.8985678  43.8361252  51.9861099  96.7740053
  43.8131940  52.0848787  95.8221936  44.1461888  52.8326250  97.0957219
  46.4948630  54.0437254 100.8886668  47.4491883  54.0121197 100.8216599
  46.2961153  53.5827878 101.7036894  47.0848012  52.6138371 103.4557465
  47.9040901  53.1082449 103.4792303  47.3584819  51.6970339 103.4275033
  56.8414608  45.0049123  92.8185421  55.9540463  45.2898773  92.6005616
  57.2568597  44.8442886  91.9712698  60.1929144  45.0295644  96.5339760
  60.9689534  45.5192096  96.8064377  59.4677278  45.4553698  96.9911630
  62.6301703  45.7423263  97.5913701  63.2246193  45.5018999  96.8807009
  62.7028286  45.0230394  98.2187237  44.8498858  59.5856874  97.9056866
  44.7153326  58.8257275  97.3394864  44.4330921  60.3097774  97.4385654
  56.8155632  50.5203659  93.0335711  56.7590833  50.9772210  92.1943343
  57.3683974  49.7594343  92.8558554  60.6260438  46.3093391  93.8585831
  60.3697372  45.9090026  94.6894038  60.0013306  47.0237185  93.7335970
  48.0067984  60.4826191  98.1175308  47.8900368  61.4271623  98.0153998
  47.1860430  60.1799753  98.5061107  42.3382926  46.9476504 104.1549662
  42.9841790  46.4375458 104.6436888  42.1300077  47.6845186 104.7293088
  54.8636318  54.0157352 109.6541803  55.7327478  54.1898004 109.2928438
  54.3843070  54.8351769 109.5317532  50.8586536  41.2116549  89.9073559
  50.8465206  42.1558389  90.0641829  51.7509958  41.0286694  89.6133020
  49.0322498  61.1354453 101.3331237  49.9349745  61.1678063 101.6497732
  48.8059868  60.2054904 101.3477572  50.7876100  59.8885439  97.9941315
  49.8371731  59.8887301  97.8805688  51.0908587  59.1418174  97.4777350
  54.6738656  37.8059326  94.1619495  53.9071052  37.2517812  94.3076178
  55.0849361  37.8781194  95.0233647  46.6780417  44.0944121 108.2524677
  47.5411878  43.7380926 108.4628001  46.1045828  43.7558016 108.9400081
  66.5228794  65.7245978  99.0587078  67.1607204  65.6052725  98.3550418
  66.4049637  66.6726822  99.1175030  63.3318500  65.6773406  98.9948602
  62.9937012  65.5614471  98.1069137  64.2008268  65.2764571  98.9749608
  59.1905316  67.5308882  94.9845493  58.6270181  67.4398819  94.2161781
  59.0757711  66.7108787  95.4647986  63.8138283  66.8308258 104.9534808
  63.8026924  66.4361056 104.0815312  63.9758923  66.0974330 105.5468579
  56.7369748  69.0260074  97.8229714  57.5291040  68.6850899  97.4076013
  56.9766398  69.1355049  98.7431867  64.7704875  71.1979850  90.2959958
  64.1192854  71.7833930  89.9093972  65.5649237  71.7286045  90.3554996
  58.6960502  68.2868987  90.6947093  59.4691378  67.7397974  90.5559968
  59.0485901  69.1513237  90.9061554  60.5345544  69.6145369 103.9013992
  60.2435410  70.5191000 103.7860658  61.1702529  69.6561897 104.6158061
  61.4601751  66.9922218 100.4915351  62.0565323  66.7678240  99.7772314
  61.5176723  66.2506963 101.0940799  61.0326780  64.4461653  88.3265542
  61.2852300  63.9243175  87.5649005  60.0951339  64.2827799  88.4292226
  66.0770062  63.4497432  96.1340286  66.8633152  63.0316855  95.7830703
  66.3408767  64.3543524  96.3021934  66.2480140  68.8870282  90.8328942
  65.6125973  68.9604909  91.5449847  65.9177546  69.4763881  90.1548022
  71.4778489  63.3872665  97.0373264  72.2103661  62.8171882  97.2711094
  70.7217845  62.9994265  97.4779770  60.7523068  66.3489759  90.5289917
  60.6359326  65.6734663  91.1971002  60.8625328  65.8622133  89.7122070
  63.0954609  65.8099906  94.2336607  62.7312816  65.2830527  94.9449528
  63.9521725  65.4198375  94.0603092  69.0003910  57.0994239 101.4967873
  68.6687235  57.9689650 101.2729088  68.4049523  56.7830523 102.1761903
  62.7360096  60.8389806  89.2297955  62.9034499  61.7070042  89.5968426
  62.5457265  61.0017088  88.3059244  65.4935429  69.3006785 100.8963786
  65.1936152  70.2031824 100.7879593  65.1486489  69.0338968 101.7484938
  58.9447911  65.7520582  96.9300490  58.0198407  65.6196796  97.1378182
  59.1932324  66.5314801  97.4270432  68.8932573  61.8189325  98.5761223
  67.9849450  61.7504734  98.2819984  68.8420169  62.2961270  99.4043048
  62.7149317  63.2947464  90.2144622  62.5948942  63.7404514  91.0530102
  62.0201905  63.6432781  89.6558160  56.3056722  65.3953855  97.7644279
  56.4349103  65.6488334  98.6783691  55.6254173  65.9881563  97.4448934
  60.4756209  76.0651105  93.8634753  60.3980239  77.0158930  93.9423234
  59.8717853  75.7196978  94.5209680  62.9673439  63.2378971 106.5196120
  62.1906773  63.7972891 106.5098985  63.6064002  63.7235754 107.0410990
  70.7594220  60.0205764 100.3539097  70.1168600  60.3138297  99.7078891
  70.2549148  59.9058684 101.1592293  68.4134383  63.7668937  91.0424956
  69.3252239  63.9996324  90.8672654  67.9044030  64.3505981  90.4800035
  61.2219811  66.0464424 106.0814087  61.9634496  66.5849468 105.8048911
  60.5156797  66.6730713 106.2385639  66.6975151  68.1893565 104.6786249
  67.1058507  67.7475975 103.9340881  65.9752412  67.6146192 104.9320441
  63.0506221  63.1266171 102.0519806  63.8967416  63.5505585 102.1954455
  62.9904859  62.4699796 102.7458369  67.0203966  68.7494755  98.4338537
  66.3912828  68.9140469  97.7314605  66.6329628  69.1636365  99.2049502
  70.8993197  69.6849193  95.7882901  70.2144236  70.0648094  95.2379935
  70.9837047  70.2944520  96.5214849  66.2005666  60.7870540 103.7100979
  65.9566598  61.5412600 103.1735255  66.4765597  61.1655887 104.5448226
  68.1544129  67.3309152 102.3878245  68.3661024  67.9740912 101.7112626
  68.1073877  66.4971469 101.9200175  65.7570358  59.9426973  99.2914817
  64.8954837  60.2408226  99.5831554  65.7832793  60.1597372  98.3595850
  62.5731927  68.4869163  95.6988623  63.0370273  68.7656866  94.9093245
  62.3088725  67.5852608  95.5161713  59.4656008  68.0340645  98.6368386
  60.0357366  68.4627913  97.9985870  60.0564120  67.7523230  99.3352572
  61.5100813  64.6092316  92.5078188  62.2124857  65.0613359  92.9752114
  61.1781442  63.9676135  93.1358081  59.9581175  63.2004072 106.8829397
  59.3279836  63.8820353 107.1164794  59.8517263  63.0887154 105.9382535
  55.2526147  62.8675868  97.8095321  54.4625201  63.1233397  97.3335432
  55.7437395  63.6824206  97.9147362  69.2689957  70.2081108 100.5600602
  70.0907401  69.8061295 100.2783284  69.2652360  70.1049342 101.5116718
  57.2040893  63.2320448  94.7678798  56.4072056  63.3439142  95.2862294
  56.9766485  63.5707100  93.9019689  63.0346560  69.7565151 102.7161313
  63.0990993  70.2185558 103.5519484  62.3257484  69.1262516 102.8443622
  53.5363850  63.1206359 100.2410312  53.7871889  64.0053369 100.5067888
  54.0723399  62.9410960  99.4685404  77.3595950  66.5519856  96.9085574
  76.6059658  65.9827254  96.7529578  77.4943491  66.5182520  97.8556208
  62.7494578  71.4233258  92.5840293  62.6140253  72.2684794  93.0125141
  63.2904391  71.6252536  91.8206227  59.2361918  57.5024838 109.2454648
  58.8428863  56.9491037 109.9202292  60.0528058  57.8135417 109.6361166
  56.2023975  68.9408696  93.1568218  56.7148496  69.7351947  93.3073783
  56.8546688  68.2434987  93.0901819  58.0118860  72.0574453  95.2390971
  58.1885488  72.9792417  95.0511955  58.8075694  71.7432872  95.6685351
  62.1529879  58.9182717 106.8374905  62.8939592  59.5189870 106.7579367
  62.3847802  58.1760355 106.2792947  57.2971217  64.1039084 105.1153134
  57.1824732  63.2024342 105.4160233  56.4415734  64.3502781 104.7637951
  64.3763054  72.0456825 106.7140635  63.9326909  71.2593203 106.3961540
  65.0380268  72.2335975 106.0484526  59.1350176  73.5752626 101.2401314
  59.6857601  73.4469690 100.4678307  58.2961652  73.8747515 100.8896206
  66.4744293  72.3259625 104.7422036  66.4562768  73.1468506 104.2502305
  67.3964213  72.2013700 104.9672177  62.9317347  69.8403754 105.5845545
  63.4645683  69.0792042 105.3544853  62.4031428  69.5477406 106.3269699
  66.0987042  54.9463820 101.1139186  65.7551311  55.8365462 101.0378297
  66.4666004  54.7565478 100.2508771  54.1672892  67.2697351  93.9327789
  55.0048114  67.6794359  93.7161496  54.3451160  66.3296793  93.9027982
  66.0637324  64.9372431  89.6211622  65.5483948  65.7077036  89.8600009
  65.7914633  64.2637567  90.2444683  63.6484435  59.7822132  94.6796860
  62.7926032  59.3928982  94.5002499  64.0611387  59.8614093  93.8196645
  65.1783582  57.3168475  99.0788420  64.6748378  57.2798610  98.2656225
  65.4714189  58.2261218  99.1385076  61.4226468  57.4007205  98.0854601
  62.2879465  57.2050014  97.7260491  61.4903977  57.1717557  99.0123958
  71.0371598  67.6904786  91.5564795  70.2601041  67.3515945  91.1119957
  71.7163079  67.6957409  90.8819760  65.8523628  62.8099523  91.4471403
  65.5473763  63.1245673  92.2981546  66.8054070  62.8880943  91.4898736
  64.2970059  68.9689747  93.0964357  63.7691421  68.2342506  92.7837594
  63.7957562  69.7464423  92.8504325  69.2762905  67.1638767  98.2131403
  68.6186580  67.8538029  98.3011532  70.0803305  67.5535199  98.5565389
  59.0288787  59.6309413  95.4570968  59.6032539  59.4084594  94.7244161
  59.6159769  59.6998107  96.2099570  68.0868364  65.5183140  96.2635345
  68.6000246  66.1513132  96.7657054  68.7369588  64.9184335  95.8978705
  59.3558374  61.6613874  89.4766853  58.5195686  61.9988561  89.7976128
  59.2163144  61.5262854  88.5393990  61.3311455  56.5050662  94.1846038
  60.6775867  56.1899679  93.5602652  61.2891929  55.8826402  94.9105861
  65.3490738  75.4967464  89.0196016  64.6752437  75.7999161  89.6280974
  65.7356560  76.2996544  88.6701473  64.5649195  62.9932595  98.5093685
  63.6471756  63.2147542  98.3515373  64.9809339  63.0678906  97.6505393
  65.3484243  64.3924011  93.6396366  66.0956062  64.9045408  93.3303488
  65.6175832  64.0708064  94.5000759  63.6210893  66.8882552  90.6223320
  62.7122112  66.6041585  90.7195790  63.6505977  67.3081630  89.7626627
  68.8530160  70.4989141  94.3914487  68.3992488  69.6580051  94.4479678
  68.2224127  71.1350540  94.7289268  67.7963080  61.4281127  95.6215155
  67.0585837  60.9158514  95.9525397  68.0489854  60.9881509  94.8098432
  67.2963100  72.3365638  95.3264306  67.5886074  72.8970695  94.6076671
  67.8061720  72.6294199  96.0817465  67.8974707  54.2057379  96.2156924
  68.2033584  53.3454743  95.9282839  68.6227312  54.7975000  96.0155918
  54.1899063  64.6088066  94.6038522  53.9923463  64.0157427  93.8789589
  53.6345727  64.3040276  95.3214461  62.1695787  64.5011172  96.7233115
  62.2244397  63.5485009  96.6475592  61.3586989  64.6570612  97.2074414
  63.3186981  68.4291295  87.9611398  62.8806411  67.7127154  87.5017036
  64.0597422  68.6567410  87.3996490  60.1088147  63.1188232  94.4823494
  59.2956012  63.4182403  94.8888686  60.6047141  62.7243921  95.1997976
  62.2596725  73.1145989  96.4157759  62.2172904  73.3406835  95.4866291
  63.1759424  72.8809364  96.5643560  65.7062359  63.5830057 103.3138388
  66.0611746  63.8101530 104.1732854  66.3534490  63.9148433 102.6915643
  71.4360096  66.7048493  94.0187717  71.2977994  66.8950089  93.0908906
  71.0796314  67.4667875  94.4755768  59.6002222  60.6906588 100.0984729
  60.2401601  60.5495347  99.4007692  58.7679752  60.4041101  99.7223331
  71.4629475  68.7725020  99.0298988  71.8965982  68.6800309  99.8782042
  72.1761056  68.7482520  98.3919004  60.3762526  69.9909018  96.2119721
  61.1703124  69.4959338  96.0102296  59.6654218  69.4626881  95.8487427
  65.1957370  72.3727114 100.5632089  65.2494392  72.9418050 101.3309805
  64.3272151  72.5428999 100.1986126  56.6845289  64.1352100  92.2879474
  55.7542877  64.0736555  92.5049436  56.7802761  63.6128053  91.4916115
  56.6030838  60.6606913  94.8757716  56.8637655  61.5752246  94.7666876
  57.4248010  60.1931355  95.0254329  58.0755763  62.0744670 102.0456540
  58.7478817  61.8662032 101.3969189  57.2485550  61.8766756 101.6061773
  72.3245025  68.8148720 101.5631874  72.5180915  69.7194531 101.8091149
  72.2245643  68.3556139 102.3970459  63.9781335  58.7006611 104.0622201
  63.3309251  59.3996560 103.9686678  64.7482351  59.1342755 104.4298449
  67.3860133  68.9655463 107.1372754  67.2345640  68.7366015 106.2202838
  67.3764813  69.9226064 107.1504099  64.1545470  66.5387376 102.1219021
  65.0837530  66.6898535 101.9487988  63.7336500  66.6271396 101.2667667
  62.9533802  70.5638040  99.8917559  62.8144887  70.1956824 100.7643497
  62.1648398  71.0785680  99.7201516  63.5481954  75.6647137  91.2343095
  63.7233709  75.1935180  92.0488718  62.8614742  76.2912903  91.4624356
  64.5039017  69.9419643  97.2806396  64.1688849  69.9020413  98.1764046
  64.0042962  69.2764359  96.8076807  58.4783261  65.3487273 102.8058977
  58.3403059  64.6167512 103.4070517  59.3888184  65.2596173 102.5243165
  67.4398208  67.2875677  87.5543456  66.8227379  66.5622505  87.4576509
  66.9714697  68.0485037  87.2110530  61.1065561  65.0607232 102.2942657
  61.8165180  64.4200424 102.2529276  61.0634870  65.3120127 103.2168838
  69.0952340  71.9974585 105.2149236  69.0364886  71.3133806 104.5479819
  69.4971858  72.7393575 104.7629862  59.8194495  62.0472450 104.1138297
  59.2831852  61.5963188 104.7659893  59.2311204  62.1818359 103.3708761
  58.1143039  78.8136499  98.0082955  58.3539637  79.4455023  98.6861974
  57.2712235  78.4624539  98.2948314  59.2296754  61.5061101  86.6764760
  58.3526221  61.3849902  86.3127007  59.7054507  60.7147180  86.4243649
  69.0969747  69.9614169 103.4463216  68.2096526  69.6240091 103.5689615
  69.6668298  69.2297201 103.6831981  50.7498894  66.2938261  96.7706267
  51.4369934  65.9799991  96.1827283  50.5947023  67.1979626  96.4973519
  55.5533617  61.1828458 101.1991291  55.4691805  60.5754127 100.4641701
  54.7316323  61.6737476 101.2000787  62.6270901  74.6215622 100.4124459
  62.5541072  75.4270593 100.9243764  62.1848294  74.8207588  99.5872481
  62.4160680  73.8587392  93.9227281  61.6328202  74.4009072  94.0165505
  63.1153426  74.3761371  94.3221522  65.7257330  59.6682021  96.5661486
  66.2226030  58.9151984  96.2462556  64.9544312  59.7046338  96.0004695
  73.5787088  65.3722387  98.2079778  73.5676964  66.2547102  97.8373711
  72.7104467  65.0193938  98.0134315  65.0869584  74.5202456 102.5682618
  65.7997556  75.1549921 102.4958519  64.5959613  74.6166322 101.7522620
  66.8087111  68.4253708  94.1399910  65.8743390  68.5455171  93.9704614
  66.9863780  67.5226175  93.8759919  62.3092299  61.8099404  96.2933171
  61.9390087  61.2570445  96.9814076  62.8051392  61.2057538  95.7408171
  70.1959663  64.2671028  94.6749944  70.6620115  65.0999019  94.6010246
  70.6467163  63.8016009  95.3795202  60.1381498  72.2696899 103.3888189
  60.8390957  72.9033382 103.5417583  59.6676613  72.6111631 102.6283828
  68.2635894  70.6114849  91.6736096  68.5395738  70.4971444  92.5829970
  67.3940392  70.2132334  91.6348269  68.1676325  56.6351615  98.7140845
  67.2539405  56.8655842  98.8823052  68.5969427  56.7190059  99.5654877
  67.9382784  64.8241507 101.2140739  67.2854234  65.0717414 100.5593192
  68.3163164  64.0105645 100.8803216  64.8989958  74.8601200  95.3168909
  65.0812352  74.0422856  95.7796662  65.7222944  75.0768892  94.8793799
  65.2332123  73.7869385  92.5783958  65.7619890  73.2761840  91.9654120
  65.4960343  73.4711915  93.4429491  63.9870357  65.5661318 107.7006776
  63.3110994  65.4655447 108.3709151  64.8097991  65.4100532 108.1642773
  55.7349216  71.8033254 100.3219291  56.3202653  71.0576942 100.4547196
  55.5374054  72.1137211 101.2055955  58.5887871  74.8384502  95.3381734
  57.9198246  75.3230629  94.8545774  58.4500741  75.0853722  96.2525112
  50.3266871  64.3738855  99.0423735  50.3650970  63.8402445  99.8360853
  49.8207163  63.8474060  98.4234712  62.7293140  76.8728245 101.9364392
  63.2811448  77.0359867 102.7013477  63.0699333  77.4632683 101.2644417
  57.7057633  59.2203395 102.5386277  57.7698959  60.0818226 102.1263675
  57.6424753  58.6077397 101.8058635  57.1809905  61.2926528 106.1859311
  57.8081944  60.9103605 106.7996835  56.3237824  61.0740730 106.5515004
  67.5804014  71.6989503 107.7913047  68.1243918  72.3119461 107.2968001
  66.9990859  72.2569081 108.3080060  53.9575448  63.1002957  92.1177666
  54.2528889  62.1913635  92.0644720  53.0563484  63.0790696  91.7958668
  65.8661527  74.8210221  98.9228074  65.7412666  74.0199961  98.4139020
  66.5240618  75.3156414  98.4342044  57.4869695  61.1758953  98.1005215
  56.7656281  61.7894921  97.9612688  58.2762951  61.7116718  98.0221860
  67.9296435  72.6219241 100.5507624  66.9826771  72.5024592 100.4785951
  68.2779208  71.7341739 100.6333886  60.2896009  58.5113380 104.3745866
  60.8130410  58.7575676 105.1372176  60.0708342  59.3433415 103.9549004
  55.6863290  60.7817054  92.2416991  55.3575996  59.9014433  92.0592097
  56.0402660  60.7264723  93.1293380  64.9342869  72.4171957  96.7511977
  64.7867831  71.4888664  96.9319547  65.7596362  72.4392048  96.2669052
  58.8005113  61.0690024  92.6092469  59.1401185  61.5975945  91.8871077
  59.2477233  61.4070430  93.3851035  68.5376990  73.2400516  97.8376849
  69.4623538  73.0343377  97.7001300  68.3692294  72.9916917  98.7466191
  61.4948554  59.4527075 102.0595537  61.1545374  58.6534888 102.4616217
  60.7887560  59.7528786 101.4872370  62.1465026  56.5376387 100.5122860
  62.9691095  56.0636865 100.3901750  62.3903089  57.3166871 101.0121546
  60.7873260  59.5664646  90.8085761  61.5081623  59.9445899  90.3049478
  60.1638564  60.2853523  90.9120739  64.9304383  60.2709795  91.7444094
  65.1467997  61.1534433  91.4432922  64.4498450  59.8796008  91.0149736
  59.6703604  63.2295508  98.3214838  59.5248185  63.5435811  99.2139120
  59.1928808  63.8480408  97.7685737  61.5299987  60.2198056  98.3695728
  61.5161556  59.3239149  98.0328026  62.2472415  60.2268720  99.0034014
  63.3826118  60.6535396 100.4148855  63.1243896  61.5752467 100.4133186
  62.8511158  60.2565831 101.1049320  68.3272307  73.7586183  93.1938941
  68.5009184  73.1932606  92.4412793  68.8201198  74.5587078  93.0118431
  54.1449266  65.7700852 101.2602500  53.6002735  66.5460660 101.3922774
  55.0228616  66.1171657 101.1021621  60.9336883  59.1012436  93.6383298
  61.0552794  58.1729082  93.8374186  60.6438925  59.1151122  92.7261614
  63.8028074  56.7867347  96.7750018  63.8249770  56.8506680  95.8201998
  64.2196133  55.9471855  96.9690524  74.1811698  66.5222606  94.8129241
  74.6242844  65.7729931  94.4148364  73.3038208  66.5132743  94.4302973
  69.3147479  73.0752948  90.2935839  70.0098384  73.6959640  90.5123154
  69.6570629  72.2248299  90.5688217  54.9315288  64.8970749 104.1532656
  54.1897024  65.0453384 104.7397287  54.6108033  65.1579014 103.2899406
  71.2138902  70.5252653  91.8223170  71.7390226  70.8639926  91.0972490
  71.1261255  69.5899668  91.6386304  62.8758951  74.4386727 103.9513046
  63.1846077  74.1935874 104.8235746  63.6734433  74.6433365 103.4631917
  62.8979563  76.5924636  96.1818423  62.4584553  76.1001015  96.8751280
  63.6487680  76.0497604  95.9410498  55.3771902  72.7836177  96.1843051
  56.2029922  72.4839949  95.8041695  55.0265954  72.0143800  96.6332840
  60.3453435  72.1362646  98.2540725  59.7233444  71.4733351  97.9542953
  61.0158302  72.1623777  97.5714372  53.5780507  70.7022504  97.1431985
  52.7412415  70.2744678  96.9615986  53.5504152  70.8954947  98.0802776
  60.4177963  60.6144434 107.8473231  60.4666118  61.4906556 107.4651000
  60.9600477  60.0721827 107.2744874  70.9032808  71.1585557 107.1274368
  70.1128352  71.1409696 106.5878867  70.6666163  71.6973851 107.8823404
  71.0230683  68.0078023 104.4407096  71.0728688  67.8428031 105.3822619
  70.9144607  67.1405282 104.0504977  59.9066942  70.6866569  91.7299185
  60.0555062  71.3702033  91.0765858  60.7133386  70.6671659  92.2448641
  68.3134446  63.9908951 105.7566403  69.2144309  63.8515416 105.4650401
  68.3882420  64.1563406 106.6964580  62.6477251  61.3675806 104.6019589
  61.7780561  61.6609372 104.3302178  62.8836731  61.9516251 105.3226853
  72.5248880  70.4274965 104.6849118  72.2333689  70.7904945 105.5212579
  71.9121011  69.7141973 104.5062450  73.7244563  67.9927844  97.2051688
  74.5591454  68.4317649  97.3689248  73.8603691  67.5166498  96.3859934
  70.7736068  65.5507579 103.1529176  71.2490190  65.7435226 102.3448027
  69.8501634  65.6066765 102.9072560  57.6619575  66.7131747  92.7360254
  57.4165617  65.8094077  92.9340464  57.8315490  66.7148897  91.7939732
  65.3516285  57.5855423 102.1185010  65.8698229  58.3216450 101.7931498
  64.9971418  57.8919416 102.9531769  56.9315223  62.4460104  90.2346416
  56.2384468  62.5204459  89.5786452  56.6866974  61.6820448  90.7567933
  65.6028879  54.0055705  97.6385906  65.8830633  53.3378894  98.2646333
  66.3879486  54.1984801  97.1260570  63.4062348  73.1814699  89.2010933
  62.8336315  73.8004886  88.7481405  63.9795141  73.7314061  89.7350855
  69.4737737  62.4273339 101.3857481  70.4255160  62.5271437 101.4069706
  69.3041188  61.6351608 101.8955566  67.4952117  59.5128923 101.5716882
  66.9002049  59.7933935 100.8763371  67.2101814  60.0022824 102.3433623
  66.6259607  73.4651849  90.3319515  67.5590281  73.3997411  90.5352390
  66.5382820  74.3008116  89.8734048  69.2547624  72.7817720  87.2923463
  69.1761256  72.4477583  88.1859220  70.0757291  73.2739488  87.2914935
  71.9525815  65.6479459 100.4999781  71.9202135  64.7095460 100.6859465
  72.5626439  65.7263496  99.7665606  63.7909146  64.5175512  86.5426985
  64.7368251  64.3881720  86.6115403  63.4123391  63.7790174  87.0196413
  72.1020304  62.4390503 100.5458064  71.5859352  61.6548959 100.3587993
  72.9860252  62.1109219 100.7104584  69.7631031  56.1831518  96.5053877
  69.5655852  55.8746606  97.3897209  70.3730736  56.9093157  96.6351807
  77.7702365  66.7095466  99.6405818  78.5005754  66.4480754 100.2013521
  77.1609311  65.9724188  99.6807886  75.8517662  64.8503329 100.2380269
  75.1250826  64.7159293  99.6296761  75.4364949  65.1580157 101.0436987
  63.6747839  68.5693258 108.0027642  64.5950848  68.7471857 108.1967689
  63.6397422  67.6249304 107.8507341  61.9752063  62.4425488  86.4781870
  61.0683519  62.1458601  86.5544584  62.2528044  62.1455307  85.6116157
  52.8930004  63.7631852  96.9280917  52.5732788  62.9097160  96.6355291
  52.3463432  63.9780430  97.6838884  56.6709911  66.4794293 100.6450423
  56.8895921  67.4111401 100.6638457  57.0835685  66.1202267 101.4305227
  63.5914129  56.9862378  92.6326112  62.7814857  56.6409463  93.0081358
  64.2798546  56.6769922  93.2213723  65.5204677  56.0640425  94.2550408
  66.0735716  56.4835878  94.9140431  65.7574764  55.1376173  94.2973364
  61.5437777  62.0527499 110.0353172  61.4434503  63.0021856 109.9665263
  61.3259319  61.7245738 109.1629242  60.7450848  59.3012424  86.6193850
  61.6070012  59.6267322  86.8789667  60.9301192  58.5143920  86.1066915
  52.7618264  67.3834763  98.8974038  52.0681735  66.9688716  98.3843993
  53.5091255  67.4255300  98.3007457  68.8983484  58.1740950  93.7629073
  68.3182153  58.8325754  93.3807125  68.6319417  57.3518295  93.3516490
  67.3487051  57.5746008  95.9650393  67.8486829  57.6862542  95.1564712
  67.9922659  57.2707061  96.6051201  61.4069047  65.4824637 108.8518234
  60.9236128  66.2824998 109.0582123  61.4929986  65.4932582 107.8985678
  54.6755006  67.3153017  96.7740053  54.6525694  67.4140704  95.8221936
  54.9855643  68.1618168  97.0957219  57.3342384  69.3729172 100.8886668
  58.2885638  69.3413115 100.8216599  57.1354908  68.9119796 101.7036894
  57.9241766  67.9430288 103.4557465  58.7434655  68.4374367 103.4792303
  58.1978574  67.0262256 103.4275033  67.6808362  60.3341041  92.8185421
  66.7934217  60.6190691  92.6005616  68.0962351  60.1734804  91.9712698
  71.0322899  60.3587562  96.5339760  71.8083289  60.8484014  96.8064377
  70.3071033  60.7845616  96.9911630  73.4695457  61.0715181  97.5913701
  74.0639948  60.8310917  96.8807009  73.5422041  60.3522311  98.2187237
  55.6892613  74.9148792  97.9056866  55.5547081  74.1549193  97.3394864
  55.2724675  75.6389692  97.4385654  66.8251576  70.0985715  86.9133441
  67.5287426  70.3035718  87.5291096  66.1014225  70.6662477  87.1782524
  67.6549386  65.8495576  93.0335711  67.5984588  66.3064128  92.1943343
  68.2077729  65.0886261  92.8558554  71.4654192  61.6385308  93.8585831
  71.2091126  61.2381944  94.6894038  70.8407060  62.3529102  93.7335970
  75.7766530  64.3781382  96.3657122  75.2166088  64.4474571  97.1388684
  75.1710033  64.2022366  95.6456618  58.8461739  75.8118109  98.1175308
  58.7294123  76.7563541  98.0153998  58.0254185  75.5091670  98.5061107
  68.7338273  70.5368244  88.9631901  69.5683877  70.1049443  88.7809376
  68.5722616  70.3650258  89.8908795  68.3884165  67.0400358  90.3288240
  68.3332969  66.8744629  89.3876684  67.7630221  67.7476391  90.4850430
  53.1776680  62.2768422 104.1549662  53.8235544  61.7667376 104.6436888
  52.9693832  63.0137104 104.7293088  65.7030073  69.3449270 109.6541803
  66.5721232  69.5189922 109.2928438  65.2236824  70.1643686 109.5317532
  61.6980291  56.5408467  89.9073559  61.6858961  57.4850307  90.0641829
  62.5903713  56.3578612  89.6133020  59.8716253  76.4646371 101.3331237
  60.7743500  76.4969981 101.6497732  59.6453623  75.5346822 101.3477572
  61.6269855  75.2177357  97.9941315  60.6765486  75.2179219  97.8805688
  61.9302341  74.4710092  97.4777350  65.5132410  53.1351243  94.1619495
  64.7464806  52.5809730  94.3076178  65.9243115  53.2073112  95.0233647
  57.5174171  59.4236039 108.2524677  58.3805633  59.0672844 108.4628001
  56.9439582  59.0849934 108.9400081  77.3622548  81.0537896  99.0587078
  78.0000958  80.9344643  98.3550418  77.2443391  82.0018739  99.1175030
  74.1712255  81.0065324  98.9948602  73.8330766  80.8906388  98.1069137
  75.0402023  80.6056489  98.9749608  70.0299070  82.8600800  94.9845493
  69.4663935  82.7690737  94.2161781  69.9151465  82.0400704  95.4647986
  74.6532038  82.1600175 104.9534808  74.6420678  81.7652974 104.0815312
  74.8152677  81.4266248 105.5468579  67.5763502  84.3551992  97.8229714
  68.3684794  84.0142816  97.4076013  67.8160152  84.4646967  98.7431867
  75.6098629  86.5271768  90.2959958  74.9586609  87.1125848  89.9093972
  76.4042992  87.0577963  90.3554996  69.5354256  83.6160905  90.6947093
  70.3085132  83.0689892  90.5559968  69.8879655  84.4805154  90.9061554
  71.3739299  84.9437287 103.9013992  71.0829165  85.8482918 103.7860658
  72.0096283  84.9853815 104.6158061  72.2995506  82.3214136 100.4915351
  72.8959078  82.0970158  99.7772314  72.3570477  81.5798881 101.0940799
  71.8720534  79.7753571  88.3265542  72.1246055  79.2535092  87.5649005
  70.9345093  79.6119716  88.4292226  76.9163817  78.7789349  96.1340286
  77.7026906  78.3608773  95.7830703  77.1802521  79.6835442  96.3021934
  77.0873894  84.2162200  90.8328942  76.4519727  84.2896826  91.5449847
  76.7571301  84.8055799  90.1548022  82.3172244  78.7164583  97.0373264
  83.0497416  78.1463799  97.2711094  81.5611600  78.3286183  97.4779770
  71.5916823  81.6781677  90.5289917  71.4753081  81.0026580  91.1971002
  71.7019083  81.1914051  89.7122070  73.9348364  81.1391824  94.2336607
  73.5706571  80.6122445  94.9449528  74.7915480  80.7490293  94.0603092
  79.8397664  72.4286157 101.4967873  79.5080989  73.2981568 101.2729088
  79.2443278  72.1122441 102.1761903  73.5753851  76.1681724  89.2297955
  73.7428253  77.0361960  89.5968426  73.3851020  76.3309005  88.3059244
  76.3329184  84.6298703 100.8963786  76.0329907  85.5323741 100.7879593
  75.9880243  84.3630886 101.7484938  69.7841665  81.0812500  96.9300490
  68.8592162  80.9488714  97.1378182  70.0326079  81.8606719  97.4270432
  79.7326328  77.1481243  98.5761223  78.8243205  77.0796651  98.2819984
  79.6813923  77.6253188  99.4043048  73.5543072  78.6239381  90.2144622
  73.4342697  79.0696432  91.0530102  72.8595660  78.9724699  89.6558160
  67.1450476  80.7245773  97.7644279  67.2742858  80.9780252  98.6783691
  66.4647928  81.3173481  97.4448934  71.3149964  91.3943023  93.8634753
  71.2373993  92.3450848  93.9423234  70.7111607  91.0488896  94.5209680
  73.8067193  78.5670888 106.5196120  73.0300527  79.1264809 106.5098985
  74.4457756  79.0527671 107.0410990  81.5987974  75.3497681 100.3539097
  80.9562354  75.6430214  99.7078891  81.0942903  75.2350602 101.1592293
  79.2528138  79.0960854  91.0424956  80.1645994  79.3288241  90.8672654
  78.7437785  79.6797899  90.4800035  72.0613566  81.3756342 106.0814087
  72.8028250  81.9141386 105.8048911  71.3550551  82.0022631 106.2385639
  77.5368905  83.5185482 104.6786249  77.9452261  83.0767893 103.9340881
  76.8146167  82.9438110 104.9320441  73.8899975  78.4558089 102.0519806
  74.7361171  78.8797503 102.1954455  73.8298613  77.7991713 102.7458369
  77.8597720  84.0786673  98.4338537  77.2306582  84.2432387  97.7314605
  77.4723382  84.4928282  99.2049502  81.7386952  85.0141111  95.7882901
  81.0537990  85.3940012  95.2379935  81.8230801  85.6236437  96.5214849
  77.0399421  76.1162457 103.7100979  76.7960353  76.8704518 103.1735255
  77.3159351  76.4947805 104.5448226  78.9937884  82.6601070 102.3878245
  79.2054779  83.3032830 101.7112626  78.9467632  81.8263386 101.9200175
  76.5964112  75.2718890  99.2914817  75.7348591  75.5700144  99.5831554
  76.6226547  75.4889289  98.3595850  73.4125682  83.8161081  95.6988623
  73.8764027  84.0948784  94.9093245  73.1482480  82.9144526  95.5161713
  70.3049763  83.3632563  98.6368386  70.8751120  83.7919831  97.9985870
  70.8957875  83.0815147  99.3352572  72.3494568  79.9384233  92.5078188
  73.0518611  80.3905277  92.9752114  72.0175196  79.2968052  93.1358081
  70.7974929  78.5295990 106.8829397  70.1673590  79.2112271 107.1164794
  70.6911017  78.4179072 105.9382535  66.0919902  78.1967786  97.8095321
  65.3018956  78.4525315  97.3335432  66.5831149  79.0116124  97.9147362
  80.1083711  85.5373025 100.5600602  80.9301155  85.1353212 100.2783284
  80.1046114  85.4341259 101.5116718  68.0434647  78.5612365  94.7678798
  67.2465811  78.6731060  95.2862294  67.8160239  78.8999017  93.9019689
  73.8740315  85.0857068 102.7161313  73.9384747  85.5477476 103.5519484
  73.1651239  84.4554433 102.8443622  64.3757605  78.4498276 100.2410312
  64.6265643  79.3345286 100.5067888  64.9117153  78.2702878  99.4685404
  88.1989705  81.8811774  96.9085574  87.4453413  81.3119172  96.7529578
  88.3337246  81.8474438  97.8556208  73.5888333  86.7525176  92.5840293
  73.4534007  87.5976712  93.0125141  74.1298145  86.9544454  91.8206227
  70.0755672  72.8316756 109.2454648  69.6822618  72.2782954 109.9202292
  70.8921813  73.1427334 109.6361166  67.0417730  84.2700614  93.1568218
  67.5542251  85.0643864  93.3073783  67.6940443  83.5726904  93.0901819
  68.8512615  87.3866370  95.2390971  69.0279243  88.3084335  95.0511955
  69.6469448  87.0724789  95.6685351  72.9923633  74.2474635 106.8374905
  73.7333347  74.8481788 106.7579367  73.2241556  73.5052273 106.2792947
  68.1364971  79.4331002 105.1153134  68.0218486  78.5316259 105.4160233
  67.2809489  79.6794699 104.7637951  69.9743930  88.9044544 101.2401314
  70.5251355  88.7761607 100.4678307  69.1355406  89.2039433 100.8896206
  73.7711101  85.1695672 105.5845545  74.3039438  84.4083960 105.3544853
  73.2425182  84.8769324 106.3269699  76.9380796  70.2755738 101.1139186
  76.5945066  71.1657380 101.0378297  77.3059759  70.0857395 100.2508771
  65.0066647  82.5989268  93.9327789  65.8441869  83.0086277  93.7161496
  65.1844914  81.6588710  93.9027982  76.9031079  80.2664349  89.6211622
  76.3877702  81.0368954  89.8600009  76.6308387  79.5929485  90.2444683
  74.4878190  75.1114050  94.6796860  73.6319786  74.7220900  94.5002499
  74.9005142  75.1906011  93.8196645  76.0177337  72.6460393  99.0788420
  75.5142132  72.6090528  98.2656225  76.3107943  73.5553136  99.1385076
  72.2620222  72.7299123  98.0854601  73.1273219  72.5341931  97.7260491
  72.3297731  72.5009474  99.0123958  81.8765353  83.0196704  91.5564795
  81.0994796  82.6807863  91.1119957  82.5556834  83.0249327  90.8819760
  76.6917382  78.1391441  91.4471403  76.3867518  78.4537590  92.2981546
  77.6447824  78.2172861  91.4898736  75.1363814  84.2981664  93.0964357
  74.6085175  83.5634424  92.7837594  74.6351317  85.0756341  92.8504325
  80.1156660  82.4930685  98.2131403  79.4580334  83.1829946  98.3011532
  80.9197059  82.8827117  98.5565389  69.8682541  74.9601331  95.4570968
  70.4426293  74.7376512  94.7244161  70.4553524  75.0290025  96.2099570
  78.9262119  80.8475058  96.2635345  79.4394000  81.4805049  96.7657054
  79.5763343  80.2476253  95.8978705  70.1952129  76.9905792  89.4766853
  69.3589441  77.3280478  89.7976128  70.0556898  76.8554771  88.5393990
  72.1705209  71.8342580  94.1846038  71.5169622  71.5191597  93.5602652
  72.1285683  71.2118320  94.9105861  73.2816414  82.1161875  86.0999330
  72.3743476  81.8851128  86.2990479  73.7787446  81.3199494  86.2873311
  76.1884493  90.8259382  89.0196016  75.5146192  91.1291079  89.6280974
  76.5750315  91.6288462  88.6701473  75.4042950  78.3224513  98.5093685
  74.4865511  78.5439460  98.3515373  75.8203093  78.3970824  97.6505393
  76.1877997  79.7215929  93.6396366  76.9349816  80.2337326  93.3303488
  76.4569587  79.3999982  94.5000759  74.4604647  82.2174470  90.6223320
  73.5515867  81.9333502  90.7195790  74.4899731  82.6373548  89.7626627
  79.6923915  85.8281059  94.3914487  79.2386242  84.9871969  94.4479678
  79.0617882  86.4642457  94.7289268  78.6356834  76.7573045  95.6215155
  77.8979591  76.2450431  95.9525397  78.8883608  76.3173427  94.8098432
  78.1356854  87.6657556  95.3264306  78.4279829  88.2262613  94.6076671
  78.6455475  87.9586117  96.0817465  78.7368462  69.5349297  96.2156924
  79.0427339  68.6746660  95.9282839  79.4621067  70.1266917  96.0155918
  65.0292818  79.9379984  94.6038522  64.8317218  79.3449344  93.8789589
  64.4739482  79.6332194  95.3214461  73.0089542  79.8303090  96.7233115
  73.0638151  78.8776927  96.6475592  72.1980744  79.9862529  97.2074414
  74.1580735  83.7583213  87.9611398  73.7200165  83.0419072  87.5017036
  74.8991176  83.9859328  87.3996490  70.9481901  78.4480150  94.4823494
  70.1349767  78.7474320  94.8888686  71.4440896  78.0535839  95.1997976
  73.0990479  88.4437907  96.4157759  73.0566658  88.6698753  95.4866291
  74.0153178  88.2101281  96.5643560  76.5456113  78.9121974 103.3138388
  76.9005501  79.1393447 104.1732854  77.1928244  79.2440351 102.6915643
  82.2753850  82.0340410  94.0187717  82.1371749  82.2242006  93.0908906
  81.9190069  82.7959793  94.4755768  70.4395976  76.0198505 100.0984729
  71.0795356  75.8787264  99.4007692  69.6073507  75.7333019  99.7223331
  82.3023230  84.1016937  99.0298988  82.7359736  84.0092226  99.8782042
  83.0154810  84.0774438  98.3919004  71.2156280  85.3200936  96.2119721
  72.0096879  84.8251256  96.0102296  70.5047972  84.7918799  95.8487427
  76.0351125  87.7019031 100.5632089  76.0888147  88.2709968 101.3309805
  75.1665906  87.8720916 100.1986126  67.5239044  79.4644018  92.2879474
  66.5936632  79.4028473  92.5049436  67.6196516  78.9419970  91.4916115
  67.4424593  75.9898830  94.8757716  67.7031410  76.9044164  94.7666876
  68.2641765  75.5223273  95.0254329  68.9149518  77.4036588 102.0456540
  69.5872571  77.1953950 101.3969189  68.0879304  77.2058674 101.6061773
  83.1638779  84.1440638 101.5631874  83.3574669  85.0486448 101.8091149
  83.0639397  83.6848057 102.3970459  74.8175090  74.0298528 104.0622201
  74.1703005  74.7288478 103.9686678  75.5876105  74.4634672 104.4298449
  74.9939224  81.8679293 102.1219021  75.9231284  82.0190453 101.9487988
  74.5730254  81.9563314 101.2667667  73.7927556  85.8929958  99.8917559
  73.6538642  85.5248742 100.7643497  73.0042152  86.4077597  99.7201516
  74.3875708  90.9939054  91.2343095  74.5627464  90.5227097  92.0488718
  73.7008496  91.6204820  91.4624356  75.3432771  85.2711560  97.2806396
  75.0082604  85.2312330  98.1764046  74.8436717  84.6056276  96.8076807
  69.3177015  80.6779190 102.8058977  69.1796813  79.9459429 103.4070517
  70.2281939  80.5888091 102.5243165  78.2791963  82.6167595  87.5543456
  77.6621134  81.8914423  87.4576509  77.8108451  83.3776955  87.2110530
  71.9459316  80.3899150 102.2942657  72.6558934  79.7492342 102.2529276
  71.9028624  80.6412045 103.2168838  70.6588250  77.3764368 104.1138297
  70.1225607  76.9255106 104.7659893  70.0704958  77.5110277 103.3708761
  68.9536793  94.1428417  98.0082955  69.1933392  94.7746941  98.6861974
  68.1105990  93.7916457  98.2948314  70.0690509  76.8353019  86.6764760
  69.1919975  76.7141820  86.3127007  70.5448262  76.0439097  86.4243649
  79.9363502  85.2906087 103.4463216  79.0490281  84.9532009 103.5689615
  80.5062053  84.5589118 103.6831981  61.5892649  81.6230179  96.7706267
  62.2763689  81.3091909  96.1827283  61.4340778  82.5271543  96.4973519
  66.3927371  76.5120375 101.1991291  66.3085560  75.9046045 100.4641701
  65.5710077  77.0029394 101.2000787  73.4664655  89.9507539 100.4124459
  73.3934827  90.7562511 100.9243764  73.0242048  90.1499505  99.5872481
  73.2554435  89.1879309  93.9227281  72.4721957  89.7300990  94.0165505
  73.9547180  89.7053289  94.3221522  76.5651085  74.9973939  96.5661486
  77.0619784  74.2443901  96.2462556  75.7938066  75.0338256  96.0004695
  84.4180842  80.7014304  98.2079778  84.4070719  81.5839020  97.8373711
  83.5498222  80.3485855  98.0134315  77.6480866  83.7545626  94.1399910
  76.7137144  83.8747089  93.9704614  77.8257534  82.8518093  93.8759919
  73.1486054  77.1391322  96.2933171  72.7783841  76.5862362  96.9814076
  73.6445146  76.5349455  95.7408171  81.0353417  79.5962945  94.6749944
  81.5013869  80.4290937  94.6010246  81.4860917  79.1307927  95.3795202
  70.9775252  87.5988817 103.3888189  71.6784712  88.2325300 103.5417583
  70.5070367  87.9403548 102.6283828  79.1029648  85.9406767  91.6736096
  79.3789492  85.8263361  92.5829970  78.2334147  85.5424252  91.6348269
  79.0070080  71.9643532  98.7140845  78.0933160  72.1947759  98.8823052
  79.4363181  72.0481976  99.5654877  78.7776538  80.1533424 101.2140739
  78.1247988  80.4009332 100.5593192  79.1556918  79.3397563 100.8803216
  75.7383712  90.1893118  95.3168909  75.9206107  89.3714774  95.7796662
  76.5616698  90.4060810  94.8793799  76.0725878  89.1161303  92.5783958
  76.6013644  88.6053757  91.9654120  76.3354097  88.8003833  93.4429491
  74.8264111  80.8953235 107.7006776  74.1504748  80.7947365 108.3709151
  75.6491745  80.7392449 108.1642773  66.5742970  87.1325172 100.3219291
  67.1596407  86.3868860 100.4547196  66.3767809  87.4429129 101.2055955
  69.4281626  90.1676419  95.3381734  68.7592001  90.6522547  94.8545774
  69.2894495  90.4145640  96.2525112  61.1660625  79.7030772  99.0423735
  61.2044725  79.1694363  99.8360853  60.6600918  79.1765978  98.4234712
  68.5451387  74.5495313 102.5386277  68.6092714  75.4110144 102.1263675
  68.4818508  73.9369314 101.8058635  68.0203660  76.6218445 106.1859311
  68.6475699  76.2395523 106.7996835  67.1631579  76.4032647 106.5515004
  64.7969203  78.4294874  92.1177666  65.0922644  77.5205553  92.0644720
  63.8957238  78.4082614  91.7958668  76.7055281  90.1502138  98.9228074
  76.5806421  89.3491878  98.4139020  77.3634373  90.6448332  98.4342044
  68.3263450  76.5050871  98.1005215  67.6050035  77.1186839  97.9612688
  69.1156705  77.0408636  98.0221860  78.7690190  87.9511159 100.5507624
  77.8220525  87.8316510 100.4785951  79.1172963  87.0633657 100.6333886
  71.1289763  73.8405297 104.3745866  71.6524165  74.0867594 105.1372176
  70.9102096  74.6725332 103.9549004  66.5257044  76.1108972  92.2416991
  66.1969750  75.2306351  92.0592097  66.8796415  76.0556641  93.1293380
  75.7736623  87.7463875  96.7511977  75.6261586  86.8180582  96.9319547
  76.5990117  87.7683965  96.2669052  69.6398867  76.3981942  92.6092469
  69.9794940  76.9267863  91.8871077  70.0870988  76.7362348  93.3851035
  79.3770745  88.5692433  97.8376849  80.3017292  88.3635295  97.7001300
  79.2086048  88.3208835  98.7466191  72.3342308  74.7818993 102.0595537
  71.9939129  73.9826806 102.4616217  71.6281314  75.0820703 101.4872370
  72.9858780  71.8668305 100.5122860  73.8084849  71.3928783 100.3901750
  73.2296844  72.6458789 101.0121546  71.6267015  74.8956563  90.8085761
  72.3475377  75.2737816  90.3049478  71.0032319  75.6145440  90.9120739
  75.7698137  75.6001712  91.7444094  75.9861752  76.4826350  91.4432922
  75.2892205  75.2087926  91.0149736  70.5097359  78.5587426  98.3214838
  70.3641940  78.8727729  99.2139120  70.0322562  79.1772326  97.7685737
  72.3693742  75.5489974  98.3695728  72.3555310  74.6531067  98.0328026
  73.0866170  75.5560637  99.0034014  74.2219872  75.9827314 100.4148855
  73.9637650  76.9044384 100.4133186  73.6904913  75.5857748 101.1049320
  79.1666061  89.0878101  93.1938941  79.3402939  88.5224523  92.4412793
  79.6594952  89.8878996  93.0118431  64.9843021  81.0992770 101.2602500
  64.4396489  81.8752578 101.3922774  65.8622371  81.4463574 101.1021621
  71.7730638  74.4304354  93.6383298  71.8946549  73.5021000  93.8374186
  71.4832680  74.4443040  92.7261614  74.6421828  72.1159264  96.7750018
  74.6643525  72.1798597  95.8201998  75.0589887  71.2763773  96.9690524
  85.0205452  81.8514524  94.8129241  85.4636598  81.1021849  94.4148364
  84.1431963  81.8424660  94.4302973  80.1541234  88.4044865  90.2935839
  80.8492138  89.0251558  90.5123154  80.4964384  87.5540217  90.5688217
  65.7709043  80.2262666 104.1532656  65.0290779  80.3745302 104.7397287
  65.4501787  80.4870932 103.2899406  82.0532657  85.8544571  91.8223170
  82.5783981  86.1931844  91.0972490  81.9655009  84.9191586  91.6386304
  73.7373318  91.9216554  96.1818423  73.2978308  91.4292933  96.8751280
  74.4881434  91.3789522  95.9410498  66.2165656  88.1128095  96.1843051
  67.0423676  87.8131867  95.8041695  65.8659708  87.3435717  96.6332840
  71.1847190  87.4654563  98.2540725  70.5627199  86.8025268  97.9542953
  71.8552057  87.4915695  97.5714372  64.4174262  86.0314421  97.1431985
  63.5806170  85.6036596  96.9615986  64.3897907  86.2246865  98.0802776
  71.2571717  75.9436351 107.8473231  71.3059873  76.8198474 107.4651000
  71.7994231  75.4013744 107.2744874  70.7460697  86.0158487  91.7299185
  70.8948817  86.6993951  91.0765858  71.5527140  85.9963577  92.2448641
  79.1528200  79.3200869 105.7566403  80.0538063  79.1807334 105.4650401
  79.2276175  79.4855324 106.6964580  73.4871006  76.6967724 104.6019589
  72.6174315  76.9901290 104.3302178  73.7230486  77.2808169 105.3226853
  84.5638317  83.3219762  97.2051688  85.3985208  83.7609566  97.3689248
  84.6997446  82.8458415  96.3859934  81.6129823  80.8799497 103.1529176
  82.0883945  81.0727143 102.3448027  80.6895388  80.9358683 102.9072560
  68.5013330  82.0423664  92.7360254  68.2559371  81.1385994  92.9340464
  68.6709244  82.0440815  91.7939732  76.1910039  72.9147341 102.1185010
  76.7091983  73.6508367 101.7931498  75.8365172  73.2211334 102.9531769
  67.7708977  77.7752022  90.2346416  67.0778222  77.8496377  89.5786452
  67.5260729  77.0112365  90.7567933  76.4422634  69.3347623  97.6385906
  76.7224387  68.6670812  98.2646333  77.2273241  69.5276719  97.1260570
  74.2456102  88.5106617  89.2010933  73.6730069  89.1296804  88.7481405
  74.8188896  89.0605979  89.7350855  80.3131492  77.7565257 101.3857481
  81.2648915  77.8563355 101.4069706  80.1434942  76.9643526 101.8955566
  78.3345871  74.8420840 101.5716882  77.7395804  75.1225853 100.8763371
  78.0495568  75.3314741 102.3433623  77.4653362  88.7943767  90.3319515
  78.3984035  88.7289329  90.5352390  77.3776575  89.6300034  89.8734048
  80.0941379  88.1109637  87.2923463  80.0155010  87.7769501  88.1859220
  80.9151045  88.6031405  87.2914935  82.7919570  80.9771377 100.4999781
  82.7595890  80.0387378 100.6859465  83.4020193  81.0555413  99.7665606
  74.6302901  79.8467430  86.5426985  75.5762005  79.7173638  86.6115403
  74.2517146  79.1082092  87.0196413  82.9414058  77.7682420 100.5458064
  82.4253107  76.9840877 100.3587993  83.8254007  77.4401137 100.7104584
  80.6024785  71.5123436  96.5053877  80.4049606  71.2038524  97.3897209
  81.2124491  72.2385075  96.6351807  88.6096120  82.0387384  99.6405818
  89.3399508  81.7772672 100.2013521  88.0003065  81.3016106  99.6807886
  86.6911417  80.1795246 100.2380269  85.9644580  80.0451211  99.6296761
  86.2758704  80.4872075 101.0436987  72.8145818  77.7717406  86.4781870
  71.9077273  77.4750519  86.5544584  73.0921799  77.4747224  85.6116157
  63.7323758  79.0923770  96.9280917  63.4126542  78.2389078  96.6355291
  63.1857186  79.3072348  97.6838884  67.5103666  81.8086211 100.6450423
  67.7289675  82.7403318 100.6638457  67.9229440  81.4494185 101.4305227
  74.4307883  72.3154296  92.6326112  73.6208612  71.9701381  93.0081358
  75.1192300  72.0061840  93.2213723  76.3598432  71.3932343  94.2550408
  76.9129470  71.8127796  94.9140431  76.5968518  70.4668091  94.2973364
  72.3831531  77.3819416 110.0353172  72.2828258  78.3313773 109.9665263
  72.1653073  77.0537655 109.1629242  63.6012018  82.7126681  98.8974038
  62.9075490  82.2980634  98.3843993  64.3485009  82.7547218  98.3007457
  79.7377239  73.5032868  93.7629073  79.1575908  74.1617672  93.3807125
  79.4713172  72.6810212  93.3516490  78.1880805  72.9037926  95.9650393
  78.6880584  73.0154460  95.1564712  78.8316413  72.5998978  96.6051201
  72.2462801  80.8116555 108.8518234  71.7629883  81.6116915 109.0582123
  72.3323740  80.8224500 107.8985678  65.5148761  82.6444935  96.7740053
  65.4919449  82.7432622  95.8221936  65.8249397  83.4910086  97.0957219
  68.1736139  84.7021090 100.8886668  69.1279392  84.6705032 100.8216599
  67.9748662  84.2411714 101.7036894  68.7635521  83.2722206 103.4557465
  69.5828410  83.7666285 103.4792303  69.0372328  82.3554174 103.4275033
  78.5202117  75.6632958  92.8185421  77.6327972  75.9482609  92.6005616
  78.9356106  75.5026722  91.9712698  81.8716653  75.6879479  96.5339760
  82.6477043  76.1775932  96.8064377  81.1464787  76.1137533  96.9911630
  84.3089212  76.4007098  97.5913701  84.9033702  76.1602834  96.8807009
  84.3815795  75.6814229  98.2187237  66.5286367  90.2440709  97.9056866
  66.3940835  89.4841110  97.3394864  66.1118430  90.9681609  97.4385654
  77.6645330  85.4277633  86.9133441  78.3681180  85.6327635  87.5291096
  76.9407979  85.9954395  87.1782524  78.4943141  81.1787494  93.0335711
  78.4378342  81.6356046  92.1943343  79.0471483  80.4178179  92.8558554
  82.3047947  76.9677226  93.8585831  82.0484881  76.5673862  94.6894038
  81.6800815  77.6821020  93.7335970  86.6160284  79.7073299  96.3657122
  86.0559842  79.7766489  97.1388684  86.0103788  79.5314284  95.6456618
  69.6855493  91.1410026  98.1175308  69.5687877  92.0855459  98.0153998
  68.8647939  90.8383588  98.5061107  79.5732028  85.8660162  88.9631901
  80.4077632  85.4341361  88.7809376  79.4116371  85.6942176  89.8908795
  79.2277920  82.3692275  90.3288240  79.1726724  82.2036547  89.3876684
  78.6023975  83.0768308  90.4850430  64.0170435  77.6060340 104.1549662
  64.6629299  77.0959294 104.6436888  63.8087586  78.3429021 104.7293088
  72.5374045  71.8700384  89.9073559  72.5252715  72.8142224  90.0641829
  73.4297467  71.6870530  89.6133020  70.7110007  91.7938288 101.3331237
  71.6137254  91.8261899 101.6497732  70.4847377  90.8638739 101.3477572
  72.4663609  90.5469275  97.9941315  71.5159240  90.5471136  97.8805688
  72.7696095  89.8002009  97.4777350  76.3526165  68.4643161  94.1619495
  75.5858561  67.9101648  94.3076178  76.7636870  68.5365030  95.0233647
  68.3567926  74.7527957 108.2524677  69.2199387  74.3964762 108.4628001
  67.7833337  74.4141852 108.9400081  80.8692825  98.1892718  94.9845493
  80.3057690  98.0982655  94.2161781  80.7545220  97.3692622  95.4647986
  86.4492384 101.8563685  90.2959958  85.7980363 102.4417766  89.9093972
  87.2436746 102.3869880  90.3554996  80.3748011  98.9452823  90.6947093
  81.1478887  98.3981810  90.5559968  80.7273410  99.8097072  90.9061554
  82.7114289  95.1045489  88.3265542  82.9639809  94.5827010  87.5649005
  81.7738848  94.9411634  88.4292226  87.9267649  99.5454117  90.8328942
  87.2913482  99.6188744  91.5449847  87.5965055 100.1347716  90.1548022
  82.4310577  97.0073595  90.5289917  82.3146835  96.3318498  91.1971002
  82.5412837  96.5205969  89.7122070  84.7742118  96.4683742  94.2336607
  84.4100325  95.9414363  94.9449528  85.6309234  96.0782211  94.0603092
  84.4147605  91.4973641  89.2297955  84.5822008  92.3653878  89.5968426
  84.2244774  91.6600923  88.3059244  84.3936826  93.9531299  90.2144622
  84.2736451  94.3988350  91.0530102  83.6989414  94.3016617  89.6558160
  90.0921892  94.4252772  91.0424956  91.0039748  94.6580159  90.8672654
  89.5831539  95.0089816  90.4800035  83.1888322  95.2676151  92.5078188
  83.8912366  95.7197195  92.9752114  82.8568951  94.6259970  93.1358081
  76.9313656  93.5259704  97.8095321  76.1412710  93.7817232  97.3335432
  77.4224904  94.3408042  97.9147362  78.8828402  93.8904283  94.7678798
  78.0859565  94.0022977  95.2862294  78.6553994  94.2290935  93.9019689
  77.8811484  99.5992532  93.1568218  78.3936005 100.3935782  93.3073783
  78.5334197  98.9018822  93.0901819  75.8460401  97.9281186  93.9327789
  76.6835623  98.3378194  93.7161496  76.0238669  96.9880628  93.9027982
  87.7424833  95.5956267  89.6211622  87.2271457  96.3660871  89.8600009
  87.4702142  94.9221403  90.2444683  85.3271944  90.4405967  94.6796860
  84.4713541  90.0512818  94.5002499  85.7398896  90.5197928  93.8196645
  83.1013977  88.0591040  98.0854601  83.9666974  87.8633849  97.7260491
  83.1691486  87.8301392  99.0123958  87.5311137  93.4683359  91.4471403
  87.2261272  93.7829508  92.2981546  88.4841579  93.5464779  91.4898736
  85.9757568  99.6273582  93.0964357  85.4478930  98.8926342  92.7837594
  85.4745071 100.4048258  92.8504325  80.7076296  90.2893248  95.4570968
  81.2820048  90.0668430  94.7244161  81.2947278  90.3581943  96.2099570
  81.0345883  92.3197709  89.4766853  80.1983195  92.6572396  89.7976128
  80.8950653  92.1846689  88.5393990  83.0098964  87.1634497  94.1846038
  82.3563376  86.8483514  93.5602652  82.9679438  86.5410238  94.9105861
  84.1210169  97.4453792  86.0999330  83.2137230  97.2143046  86.2990479
  84.6181201  96.6491412  86.2873311  87.0271752  95.0507846  93.6396366
  87.7743571  95.5629244  93.3303488  87.2963341  94.7291899  94.5000759
  85.2998402  97.5466387  90.6223320  84.3909621  97.2625420  90.7195790
  85.3293486  97.9665466  89.7626627  89.4750589  92.0864963  95.6215155
  88.7373346  91.5742349  95.9525397  89.7277362  91.6465344  94.8098432
  89.5762216  84.8641215  96.2156924  89.8821093  84.0038578  95.9282839
  90.3014821  85.4558835  96.0155918  75.8686572  95.2671901  94.6038522
  75.6710972  94.6741262  93.8789589  75.3133236  94.9624111  95.3214461
  84.9974490  99.0875131  87.9611398  84.5593920  98.3710990  87.5017036
  85.7384931  99.3151246  87.3996490  81.7875656  93.7772068  94.4823494
  80.9743521  94.0766238  94.8888686  82.2834650  93.3827756  95.1997976
  78.3632798  94.7935935  92.2879474  77.4330386  94.7320391  92.5049436
  78.4590270  94.2711888  91.4916115  78.2818347  91.3190748  94.8757716
  78.5425164  92.2336081  94.7666876  79.1035519  90.8515191  95.0254329
  89.1185717  97.9459512  87.5543456  88.5014888  97.2206341  87.4576509
  88.6502206  98.7068873  87.2110530  80.9084263  92.1644937  86.6764760
  80.0313730  92.0433738  86.3127007  81.3842016  91.3731015  86.4243649
  72.4286403  96.9522097  96.7706267  73.1157443  96.6383827  96.1827283
  72.2734532  97.8563461  96.4973519  77.2321126  91.8412293 101.1991291
  77.1479314  91.2337963 100.4641701  76.4103832  92.3321311 101.2000787
  87.4044839  90.3265857  96.5661486  87.9013539  89.5735819  96.2462556
  86.6331821  90.3630173  96.0004695  83.9879808  92.4683240  96.2933171
  83.6177596  91.9154280  96.9814076  84.4838901  91.8641373  95.7408171
  72.0054380  95.0322690  99.0423735  72.0438479  94.4986281  99.8360853
  71.4994672  94.5057895  98.4234712  75.6362957  93.7586792  92.1177666
  75.9316398  92.8497470  92.0644720  74.7350993  93.7374531  91.7958668
  79.1657204  91.8342789  98.1005215  78.4443790  92.4478756  97.9612688
  79.9550460  92.3700553  98.0221860  77.3650799  91.4400890  92.2416991
  77.0363505  90.5598269  92.0592097  77.7190169  91.3848558  93.1293380
  80.4792622  91.7273859  92.6092469  80.8188694  92.2559781  91.8871077
  80.9264742  92.0654266  93.3851035  82.4660769  90.2248481  90.8085761
  83.1869132  90.6029734  90.3049478  81.8426073  90.9437358  90.9120739
  86.6091892  90.9293630  91.7444094  86.8255506  91.8118268  91.4432922
  86.1285959  90.5379843  91.0149736  83.2087496  90.8781891  98.3695728
  83.1949065  89.9822985  98.0328026  83.9259924  90.8852555  99.0034014
  82.6124392  89.7596272  93.6383298  82.7340303  88.8312918  93.8374186
  82.3226434  89.7734958  92.7261614  85.4815582  87.4451182  96.7750018
  85.5037279  87.5090515  95.8201998  85.8983641  86.6055691  96.9690524
  81.5854451 101.3450404  91.7299185  81.7342571 102.0285869  91.0765858
  82.3920895 101.3255494  92.2448641  79.3407084  97.3715582  92.7360254
  79.0953126  96.4677912  92.9340464  79.5102999  97.3732732  91.7939732
  78.6102732  93.1043939  90.2346416  77.9171977  93.1788294  89.5786452
  78.3654483  92.3404283  90.7567933  87.2816388  84.6639541  97.6385906
  87.5618142  83.9962730  98.2646333  88.0666995  84.8568636  97.1260570
  85.0849857 103.8398535  89.2010933  84.5123824 104.4588722  88.7481405
  85.6582650 104.3897896  89.7350855  90.9335133 103.4401555  87.2923463
  90.8548765 103.1061419  88.1859220  91.7544800 103.9323323  87.2914935
  85.4696655  95.1759347  86.5426985  86.4155760  95.0465556  86.6115403
  85.0910900  94.4374009  87.0196413  91.4418540  86.8415353  96.5053877
  91.2443361  86.5330442  97.3897209  92.0518245  87.5676992  96.6351807
  83.6539572  93.1009324  86.4781870  82.7471028  92.8042437  86.5544584
  83.9315553  92.8039142  85.6116157  74.5717513  94.4215687  96.9280917
  74.2520297  93.5680995  96.6355291  74.0250941  94.6364265  97.6838884
  85.2701638  87.6446214  92.6326112  84.4602366  87.2993299  93.0081358
  85.9586055  87.3353757  93.2213723  87.1992186  86.7224260  94.2550408
  87.7523225  87.1419714  94.9140431  87.4362273  85.7960008  94.2973364
  82.4238357  89.9596259  86.6193850  83.2857521  90.2851157  86.8789667
  82.6088701  89.1727755  86.1066915  74.4405773  98.0418599  98.8974038
  73.7469244  97.6272552  98.3843993  75.1878764  98.0839135  98.3007457
  90.5770993  88.8324785  93.7629073  89.9969662  89.4909590  93.3807125
  90.3106926  88.0102130  93.3516490  89.0274560  88.2329843  95.9650393
  89.5274338  88.3446378  95.1564712  89.6710168  87.9290896  96.6051201
  76.3542515  97.9736853  96.7740053  76.3313203  98.0724540  95.8221936
  76.6643152  98.8202003  97.0957219  89.3595871  90.9924876  92.8185421
  88.4721726  91.2774527  92.6005616  89.7749860  90.8318639  91.9712698
  88.5039085 100.7569551  86.9133441  89.2074935 100.9619553  87.5291096
  87.7801734 101.3246312  87.1782524  89.3336895  96.5079412  93.0335711
  89.2772097  96.9647963  92.1943343  89.8865238  95.7470096  92.8558554
  93.1441701  92.2969144  93.8585831  92.8878635  91.8965779  94.6894038
  92.5194569  93.0112938  93.7335970  90.4125782 101.1952080  88.9631901
  91.2471386 100.7633278  88.7809376  90.2510125 101.0234093  89.8908795
  90.0671674  97.6984193  90.3288240  90.0120478  97.5328464  89.3876684
  89.4417730  98.4060226  90.4850430  83.3767800  87.1992302  89.9073559
  83.3646470  88.1434142  90.0641829  84.2691222  87.0162447  89.6133020
  87.1919919  83.7935079  94.1619495  86.4252315  83.2393565  94.3076178
  87.6030624  83.8656947  95.0233647  32.2523612   2.2166220  77.0205265
  31.6011592   2.8020300  76.6339279  33.0467975   2.7472415  77.0800302
  26.1779239  -0.6944643  77.4192399  26.9510115  -1.2415656  77.2805275
  26.5304638   0.1699606  77.6306861  33.7298877  -0.0943348  77.5574249
  33.0944710  -0.0208722  78.2695154  33.3996284   0.4950250  76.8793328
  27.9574947   7.0837475  80.5880060  27.8798977   8.0345300  80.6668540
  27.3536591   6.7383347  81.2454986  35.8953121  -5.2144694  77.7670263
  36.8070977  -4.9817307  77.5917960  35.3862768  -4.6307649  77.2045341
  38.3811935   0.7035563  82.5128208  37.6962973   1.0834464  81.9625241
  38.4655785   1.3130889  83.2460156  30.0550665  -0.4944467  82.4233929
  30.5189011  -0.2156764  81.6338552  29.7907463  -1.3961023  82.2407020
  44.8414688  -2.4293774  83.6330880  44.0878396  -2.9986376  83.4774885
  44.9762229  -2.4631110  84.5801515  30.2313316   2.4419628  79.3085600
  30.0958991   3.2871164  79.7370447  30.7723128   2.6438906  78.5451533
  25.4937598   3.0760822  81.9636278  25.6704226   3.9978787  81.7757262
  26.2894431   2.7619241  82.3930658  33.5456062  -4.0441199  76.3456928
  33.0302686  -3.2736595  76.5845316  33.2733371  -4.7176063  76.9689990
  38.5190336  -1.2908845  78.2810102  37.7419779  -1.6297685  77.8365264
  39.1981817  -1.2856221  77.6065067  31.7788797  -0.0123884  79.8209663
  31.2510159  -0.7471124  79.5082901  31.2776300   0.7650793  79.5749632
  36.7581643  -1.8174863  84.9376710  36.1005318  -1.1275602  85.0256838
  37.5622042  -1.4278431  85.2810696  35.5687102  -3.4630491  82.9880651
  36.0818984  -2.8300499  83.4902361  36.2188326  -4.0629295  82.6224011
  29.9241397  -2.1943673  72.8244636  29.0168459  -2.4254420  73.0235785
  30.4212429  -2.9906054  73.0118618  32.8309476   6.5153834  75.7441323
  32.1571175   6.8185530  76.3526280  33.2175298   7.3182914  75.3946780
  32.8302981  -4.5889619  80.3641672  33.5774800  -4.0768222  80.0548794
  33.0994570  -4.9105567  81.2246066  31.1029631  -2.0931079  77.3468626
  30.1940850  -2.3772046  77.4441096  31.1324715  -1.6732000  76.4871933
  36.3348898   1.5175511  81.1159794  35.8811225   0.6766421  81.1724984
  35.7042865   2.1536909  81.4534574  34.7781837   3.3552008  82.0509612
  35.0704812   3.9157065  81.3321978  35.2880458   3.6480569  82.8062771
  30.8005719  -0.5522335  74.6856705  30.3625149  -1.2686476  74.2262342
  31.5416159  -0.3246220  74.1241796  29.7415463   4.1332359  83.1403065
  29.6991641   4.3593205  82.2111597  30.6578161   3.8995733  83.2888866
  38.9178833  -2.2765138  80.7433024  38.7796732  -2.0863542  79.8154213
  38.5615052  -1.5145755  81.2001075  38.9448213  -0.2088611  85.7544295
  39.3784720  -0.3013322  86.6027349  39.6579794  -0.2331110  85.1164311
  27.8581263   1.0095388  82.9365028  28.6521862   0.5145708  82.7347603
  27.1472956   0.4813251  82.5732734  31.0300691   6.6833506  77.9588402
  31.2052447   6.2121549  78.7734024  30.3433479   7.3099272  78.1869662
  34.9216946  -1.6937953  74.2788763  34.3046117  -2.4191125  74.1821815
  34.4533435  -0.9328593  73.9355837  25.5961777   9.8322869  84.7328262
  25.8358375  10.4641393  85.4107280  24.7530973   9.4810909  85.0193621
  29.8979418   4.8773761  80.6472587  29.1146940   5.4195442  80.7410812
  30.5972163   5.3947741  81.0466829  41.0605826  -3.6091244  84.9325084
  41.0495702  -2.7266528  84.5619017  40.1923205  -3.9619693  84.7379621
  34.2905849  -0.5559922  80.8645216  33.3562128  -0.4358459  80.6949920
  34.4682517  -1.4587455  80.6005226  37.6778400  -4.7142603  81.3995250
  38.1438853  -3.8814611  81.3255553  38.1285901  -5.1797621  82.1040509
  35.7454631   1.6301219  78.3981402  36.0214475   1.5157813  79.3075276
  34.8759130   1.2318703  78.3593575  32.3808695   5.8787569  82.0414216
  32.5631090   5.0609225  82.5041968  33.2041681   6.0955262  81.6039106
  32.7150861   4.8055755  79.3029264  33.2438627   4.2948209  78.6899427
  32.9779081   4.4898285  80.1674797  26.0706609   5.8570871  82.0627040
  25.4016984   6.3416999  81.5791080  25.9319479   6.1040092  82.9770419
  33.3480265   5.8396590  85.6473381  33.2231404   5.0386330  85.1384326
  34.0059356   6.3342784  85.1587351  35.4115173   3.6405610  87.2752931
  34.4645509   3.5210962  87.2031258  35.7597946   2.7528108  87.3579192
  32.4161606   3.4358327  83.4757283  32.2686569   2.5075034  83.6564853
  33.2415100   3.4578417  82.9914358  36.0195728   4.2586885  84.5622156
  36.9442276   4.0529747  84.4246607  35.8511032   4.0103287  85.4711497
  35.8091044   4.7772553  79.9184247  35.9827922   4.2118975  79.1658100
  36.3019936   5.5773448  79.7363737  41.6630436  -2.4591024  81.5374547
  42.1061582  -3.2083699  81.1393670  40.7856946  -2.4680888  81.1548279
  36.7966217   4.0939317  77.0181146  37.4917122   4.7146010  77.2368460
  37.1389367   3.2434668  77.2933524  38.6957640   1.5439023  78.5468476
  39.2208964   1.8826295  77.8217796  38.6079993   0.6086038  78.3631611
  30.3798301   7.6111006  82.9063730  29.9403291   7.1187385  83.5996586
  31.1306418   7.0683974  82.6655805  27.3885680   1.7052938  78.4544492
  27.5373800   2.3888403  77.8011165  28.1952123   1.6858029  78.9693948
  41.2063300  -0.9885786  83.9296995  42.0410192  -0.5495982  84.0934555
  41.3422429  -1.4647133  83.1105241  30.8881085   4.2001069  75.9256239
  30.3155052   4.8191256  75.4726711  31.4613879   4.7500431  76.4596161
  34.1078345   4.4838219  77.0564822  35.0409018   4.4183781  77.2597697
  34.0201558   5.3194486  76.5979354  36.7366362   3.8004089  74.0168769
  36.6579993   3.4663953  74.9104527  37.5576029   4.2925857  74.0160241
  45.2521103  -2.2718164  86.3651125  45.9824491  -2.5332876  86.9258828
  44.6428048  -3.0089443  86.4053193  34.3070314   1.1172085  73.6378747
  35.0106164   1.3222087  74.2536403  33.5832962   1.6848847  73.9027831
  35.1368124  -3.1318054  79.7581018  35.0803325  -2.6749503  78.9188650
  35.6896466  -3.8927369  79.5803860  38.9472930  -7.3428322  80.5831137
  38.6909864  -7.7431686  81.4139345  38.3225798  -6.6284528  80.4581276
  43.2585268  -4.6032249  83.0902429  42.6984826  -4.5339060  83.8633991
  42.6528771  -4.7791264  82.3701925  26.3280476   6.8304478  84.8420615
  26.2112861   7.7749911  84.7399305  25.5072923   6.5278040  85.2306414
  36.2157011   1.5554614  75.6877208  37.0502615   1.1235812  75.5054682
  36.0541354   1.3836628  76.6154102  35.8702903  -1.9413273  77.0533547
  35.8151707  -2.1069001  76.1121991  35.2448958  -1.2337240  77.2095737
  29.1088593   6.2363727  84.7186622  28.1584224   6.2365588  84.6050994
  29.4121079   5.4896461  84.2022656  44.8441286  12.0724265  85.7832384
  45.4819696  11.9531012  85.0795724  44.7262129  13.0205109  85.8420336
  41.6530992  12.0251693  85.7193909  41.3149504  11.9092758  84.8314444
  42.5220761  11.6242858  85.6994915  37.5117808  13.8787170  81.7090800
  36.9482673  13.7877107  80.9407088  37.3970203  13.0587074  82.1893292
  42.1350775  13.1786545  91.6780114  42.1239416  12.7839343  90.8060618
  42.2971415  12.4452618  92.2713886  35.0582240  15.3738361  84.5475020
  35.8503532  15.0329186  84.1321320  35.2978890  15.4833336  85.4677174
  43.0917367  17.5458137  77.0205265  42.4405347  18.1312218  76.6339279
  43.8861730  18.0764332  77.0800302  37.0172994  14.6347274  77.4192399
  37.7903870  14.0876262  77.2805275  37.3698393  15.4991524  77.6306861
  38.8558037  15.9623657  90.6259298  38.5647903  16.8669288  90.5105965
  39.4915021  16.0040184  91.3403368  39.7814243  13.3400505  87.2160658
  40.3777816  13.1156528  86.5017621  39.8389215  12.5985251  87.8186106
  39.3539272  10.7939941  75.0510849  39.6064792  10.2721462  74.2894312
  38.4163831  10.6306086  75.1537533  44.3982555   9.7975719  82.8585592
  45.1845644   9.3795142  82.5076009  44.6621259  10.7021811  83.0267241
  44.5692632  15.2348569  77.5574249  43.9338465  15.3083196  78.2695154
  44.2390038  15.8242168  76.8793328  49.7990982   9.7350952  83.7618571
  50.5316154   9.1650169  83.9956400  49.0430337   9.3472553  84.2025076
  39.0735561  12.6968047  77.2535224  38.9571819  12.0212950  77.9216308
  39.1837820  12.2100420  76.4367377  41.4167101  12.1578194  80.9581913
  41.0525309  11.6308815  81.6694835  42.2734217  11.7676663  80.7848399
  47.3216402   3.4472526  88.2213179  46.9899727   4.3167937  87.9974394
  46.7262015   3.1308810  88.9007210  41.0572588   7.1868093  75.9543262
  41.2246991   8.0548330  76.3213733  40.8669758   7.3495375  75.0304551
  43.8147922  15.6485072  87.6209092  43.5148645  16.5510111  87.5124899
  43.4698981  15.3817255  88.4730245  37.2660403  12.0998869  83.6545797
  36.3410900  11.9675083  83.8623488  37.5144816  12.8793088  84.1515739
  47.2145065   8.1667612  85.3006529  46.3061943   8.0983021  85.0065290
  47.1632661   8.6439557  86.1288355  41.0361809   9.6425751  76.9389929
  40.9161435  10.0882802  77.7775409  40.3414398   9.9911069  76.3803467
  34.6269214  11.7432143  84.4889586  34.7561595  11.9966622  85.4028997
  33.9466665  12.3359851  84.1694241  38.7968701  22.4129393  80.5880060
  38.7192731  23.3637218  80.6668540  38.1930345  22.0675265  81.2454986
  41.2885931   9.5857258  93.2441427  40.5119265  10.1451178  93.2344291
  41.9276494  10.0714041  93.7656297  49.0806712   6.3684051  87.0784403
  48.4381092   6.6616584  86.4324198  48.5761640   6.2536971  87.8837600
  46.7346875  10.1147224  77.7670263  47.6464732  10.3474611  77.5917960
  46.2256523  10.6984268  77.2045341  39.5432304  12.3942711  92.8059394
  40.2846988  12.9327755  92.5294217  38.8369289  13.0209000  92.9630946
  45.0187643  14.5371852  91.4031555  45.4270999  14.0954262  90.6586188
  44.2964905  13.9624479  91.6565748  41.3718713   9.4744459  88.7765112
  42.2179908   9.8983872  88.9199761  41.3117351   8.8178083  89.4703675
  45.3416458  15.0973042  85.1583844  44.7125320  15.2618757  84.4559912
  44.9542120  15.5114652  85.9294808  49.2205690  16.0327480  82.5128208
  48.5356728  16.4126382  81.9625241  49.3049539  16.6422807  83.2460156
  44.5218159   7.1348827  90.4346286  44.2779090   7.8890887  89.8980562
  44.7978089   7.5134175  91.2693533  46.4756621  13.6787439  89.1123551
  46.6873517  14.3219199  88.4357932  46.4286370  12.8449756  88.6445481
  44.0782850   6.2905260  86.0160124  43.2167329   6.5886514  86.3076861
  44.1045285   6.5075659  85.0841156  40.8944420  14.8347451  82.4233929
  41.3582765  15.1135154  81.6338552  40.6301218  13.9330895  82.2407020
  37.7868501  14.3818932  85.3613692  38.3569858  14.8106200  84.7231177
  38.3776613  14.1001517  86.0597878  39.8313306  10.9570603  79.2323494
  40.5337349  11.4091647  79.6997421  39.4993934  10.3154422  79.8603387
  33.5738640   9.2154156  84.5340628  32.7837694   9.4711684  84.0580739
  34.0649887  10.0302493  84.6392668  47.5902449  16.5559395  87.2845909
  48.4119893  16.1539582  87.0028590  47.5864852  16.4527629  88.2362025
  35.5253385   9.5798735  81.4924105  34.7284548   9.6917429  82.0107600
  35.2978977   9.9185387  80.6264995  41.3559053  16.1043438  89.4406619
  41.4203485  16.5663845  90.2764791  40.6469977  15.4740803  89.5688929
  31.8576343   9.4684646  86.9655619  32.1084381  10.3531656  87.2313195
  32.3935891   9.2889248  86.1930711  55.6808442  12.8998143  83.6330880
  54.9272151  12.3305541  83.4774885  55.8155984  12.8660808  84.5801515
  41.0707070  17.7711546  79.3085600  40.9352745  18.6163081  79.7370447
  41.6116883  17.9730823  78.5451533  34.5236468  15.2886984  79.8813525
  35.0360988  16.0830234  80.0319089  35.1759181  14.5913274  79.8147126
  36.3331352  18.4052740  81.9636278  36.5097981  19.3270705  81.7757262
  37.1288186  18.0911159  82.3930658  42.6975547  18.3935112  93.4385942
  42.2539401  17.6071491  93.1206846  43.3592760  18.5814263  92.7729832
  37.4562668  19.9230914  87.9646620  38.0070093  19.7947977  87.1923614
  36.6174144  20.2225803  87.6141513  44.7956785  18.6737912  91.4667343
  44.7775260  19.4946793  90.9747612  45.7176705  18.5491987  91.6917484
  41.2529839  16.1882041  92.3090851  41.7858176  15.4270330  92.0790159
  40.7243920  15.8955693  93.0515006  44.4199534   1.2942107  87.8384493
  44.0763803   2.1843749  87.7623604  44.7878497   1.1043765  86.9754078
  32.4885385  13.6175638  80.6573095  33.3260607  14.0272646  80.4406803
  32.6663652  12.6775080  80.6273289  44.3849817  11.2850719  76.3456928
  43.8696440  12.0555323  76.5845316  44.1127125  10.6115855  76.9689990
  41.9696928   6.1300419  81.4042167  41.1138524   5.7407270  81.2247805
  42.3823879   6.2092380  80.5441952  43.4996074   3.6646763  85.8033726
  42.9960870   3.6276898  84.9901532  43.7926681   4.5739505  85.8630383
  39.7438960   3.7485492  84.8099908  40.6091957   3.5528301  84.4505797
  39.8116469   3.5195844  85.7369265  49.3584091  14.0383073  78.2810102
  48.5813534  13.6994233  77.8365264  50.0375572  14.0435696  77.6065067
  44.1736120   9.1577811  78.1716709  43.8686255   9.4723960  79.0226853
  45.1266562   9.2359231  78.2144042  42.6182552  15.3168034  79.8209663
  42.0903913  14.5820794  79.5082901  42.1170054  16.0942710  79.5749632
  47.5975398  13.5117054  84.9376710  46.9399072  14.2016316  85.0256838
  48.4015797  13.9013486  85.2810696  37.3501279   5.9787700  82.1816275
  37.9245031   5.7562882  81.4489468  37.9372262   6.0476395  82.9344876
  46.4080856  11.8661427  82.9880651  46.9212738  12.4991419  83.4902361
  47.0582080  11.2662623  82.6224011  37.6770866   8.0092161  76.2012160
  36.8408179   8.3466848  76.5221435  37.5375636   7.8741141  75.2639297
  39.6523947   2.8528949  80.9091344  38.9988359   2.5377966  80.2847959
  39.6104421   2.2304690  81.6351167  40.7635152  13.1348244  72.8244636
  39.8562214  12.9037498  73.0235785  41.2606184  12.3385863  73.0118618
  43.6703231  21.8445751  75.7441323  42.9964929  22.1477448  76.3526280
  44.0569053  22.6474832  75.3946780  42.8861687   9.3410883  85.2338992
  41.9684249   9.5625830  85.0760680  43.3021831   9.4157193  84.3750699
  43.6696735  10.7402298  80.3641672  44.4168554  11.2523696  80.0548794
  43.9388325  10.4186351  81.2246066  41.9423385  13.2360839  77.3468626
  41.0334605  12.9519872  77.4441096  41.9718469  13.6559918  76.4871933
  47.1742653  16.8467429  81.1159794  46.7204980  16.0058338  81.1724984
  46.5436619  17.4828827  81.4534574  46.1175572   7.7759415  82.3460461
  45.3798329   7.2636801  82.6770704  46.3702346   7.3359796  81.5343738
  45.6175592  18.6843925  82.0509612  45.9098566  19.2448982  81.3321978
  46.1274212  18.9772486  82.8062771  46.2187200   0.5535667  82.9402231
  46.5246076  -0.3066970  82.6528146  46.9439804   1.1453287  82.7401225
  32.5111556  10.9566353  81.3283829  32.3135955  10.3635714  80.6034895
  31.9558220  10.6518563  82.0459767  40.4908279  10.8489460  83.4478422
  40.5456889   9.8963296  83.3720898  39.6799481  11.0048899  83.9319720
  41.6399473  14.7769583  74.6856705  41.2018903  14.0605442  74.2262342
  42.3809914  15.0045698  74.1241796  38.4300639   9.4666519  81.2068801
  37.6168505   9.7660690  81.6133993  38.9259633   9.0722208  81.9243283
  40.5809217  19.4624276  83.1403065  40.5385396  19.6885123  82.2111597
  41.4971916  19.2287651  83.2888866  44.0274851   9.9308344  90.0383695
  44.3824239  10.1579817  90.8978160  44.6746982  10.2626721  89.4160950
  49.7572588  13.0526780  80.7433024  49.6190486  13.2428376  79.8154213
  49.4008807  13.8146163  81.2001075  37.9214714   7.0384875  86.8230036
  38.5614093   6.8973634  86.1252999  37.0892245   6.7519388  86.4468638
  49.7841967  15.1203307  85.7544295  50.2178474  15.0278596  86.6027349
  50.4973548  15.0960807  85.1164311  38.6975018  16.3387305  82.9365028
  39.4915616  15.8437625  82.7347603  37.9866710  15.8105168  82.5732734
  43.5169862  18.7205401  87.2877396  43.5706885  19.2896337  88.0555112
  42.6484644  18.8907286  86.9231433  35.0057781  10.4830387  79.0124781
  34.0755369  10.4214843  79.2294743  35.1015253   9.9606340  78.2161422
  34.9243330   7.0085200  81.6003022  35.1850148   7.9230533  81.4912183
  35.7460503   6.5409642  81.7499635  36.3968256   8.4222957  88.7701847
  37.0691309   8.2140319  88.1214496  35.5698042   8.2245043  88.3307079
  50.6457517  15.1627007  88.2877180  50.8393407  16.0672818  88.5336455
  50.5458135  14.7034427  89.1215766  42.2993828   5.0484898  90.7867508
  41.6521743   5.7474848  90.6931984  43.0694843   5.4821042  91.1543756
  45.7072626  15.3133750  93.8618061  45.5558132  15.0844302  92.9448145
  45.6977305  16.2704352  93.8749406  42.4757962  12.8865663  88.8464328
  43.4050022  13.0376823  88.6733295  42.0548992  12.9749684  87.9912974
  41.2746294  16.9116327  86.6162865  41.1357380  16.5435112  87.4888803
  40.4860890  17.4263967  86.4446823  41.8694446  22.0125424  77.9588402
  42.0446202  21.5413467  78.7734024  41.1827234  22.6391190  78.1869662
  42.8251509  16.2897930  84.0051703  42.4901342  16.2498700  84.9009353
  42.3255455  15.6242646  83.5322113  36.7995753  11.6965560  89.5304284
  36.6615551  10.9645799  90.1315823  37.7100676  11.6074460  89.2488472
  45.7610701  13.6353964  74.2788763  45.1439871  12.9100793  74.1821815
  45.2927189  14.3963325  73.9355837  39.4278054  11.4085519  89.0187964
  40.1377672  10.7678712  88.9774582  39.3847362  11.6598414  89.9414145
  47.4164832  18.3452873  91.9394543  47.3577379  17.6612093  91.2725126
  47.8184351  19.0871863  91.4875169  36.4355531  25.1614787  84.7328262
  36.6752129  25.7933311  85.4107280  35.5924728  24.8102827  85.0193621
  37.5509247   7.8539389  73.4010067  36.6738713   7.7328189  73.0372314
  38.0267000   7.0625467  73.1488956  47.4182240  16.3092457  90.1708523
  46.5309018  15.9718378  90.2934922  47.9880791  15.5775488  90.4077288
  29.0711387  12.6416548  83.4951574  29.7582427  12.3278278  82.9072589
  28.9159515  13.5457913  83.2218825  33.8746109   7.5306745  87.9236598
  33.7904298   6.9232415  87.1887008  33.0528815   8.0215763  87.9246094
  40.9483393  20.9693909  87.1369766  40.8753564  21.7748881  87.6489070
  40.5060786  21.1685875  86.3117787  40.7373173  20.2065679  80.6472587
  39.9540695  20.7487359  80.7410812  41.4365918  20.7239659  81.0466829
  44.0469823   6.0160309  83.2906793  44.5438522   5.2630271  82.9707863
  43.2756804   6.0524625  82.7250002  51.8999580  11.7200674  84.9325084
  51.8889456  12.6025389  84.5619017  51.0316960  11.3672225  84.7379621
  43.4082077  20.8680743  89.2927924  44.1210049  21.5028208  89.2203826
  42.9172105  20.9644609  88.4767926  45.1299603  14.7731996  80.8645216
  44.1955882  14.8933458  80.6949920  45.3076272  13.8704463  80.6005226
  40.6304791   8.1577692  83.0178477  40.2602579   7.6048732  83.7059383
  41.1263884   7.5535825  82.4653477  48.5172155  10.6149315  81.3995250
  48.9832607  11.4477307  81.3255553  48.9679655  10.1494297  82.1040509
  38.4593990  18.6175187  90.1133495  39.1603450  19.2511669  90.2662890
  37.9889105  18.9589918  89.3529135  46.5848386  16.9593136  78.3981402
  46.8608230  16.8449731  79.3075276  45.7152885  16.5610621  78.3593575
  46.4888818   2.9829902  85.4386152  45.5751897   3.2134129  85.6068359
  46.9181919   3.0668346  86.2900184  46.2595276  11.1719794  87.9386046
  45.6066726  11.4195701  87.2838498  46.6375656  10.3583932  87.6048523
  43.2202450  21.2079487  82.0414216  43.4024844  20.3901143  82.5041968
  44.0435436  21.4247179  81.6039106  43.5544615  20.1347672  79.3029264
  44.0832382  19.6240127  78.6899427  43.8172835  19.8190202  80.1674797
  42.3082849  11.9139605  94.4252083  41.6323486  11.8133734  95.0954458
  43.1310483  11.7578819  94.8888080  34.0561708  18.1511542  87.0464598
  34.6415145  17.4055229  87.1792502  33.8586547  18.4615498  87.9301262
  36.9100363  21.1862789  82.0627040  36.2410739  21.6708917  81.5791080
  36.7713233  21.4332009  82.9770419  28.6479363  10.7217142  85.7669041
  28.6863462  10.1880732  86.5606159  28.1419656  10.1952347  85.1480018
  41.0505632  23.2206532  88.6609699  41.6023940  23.3838154  89.4258784
  41.3911825  23.8110970  87.9889724  45.9016506  18.0467790  94.5158353
  46.4456410  18.6597748  94.0213308  45.3203351  18.6047368  95.0325366
  32.2787940   9.4481244  78.8422973  32.5741382   8.5391922  78.7890026
  31.3775976   9.4268983  78.5203975  44.1874019  21.1688508  85.6473381
  44.0625159  20.3678248  85.1384326  44.8453110  21.6634701  85.1587351
  35.8082187   7.5237240  84.8250521  35.0868773   8.1373208  84.6857994
  36.5975443   8.0595005  84.7467167  46.2508928  18.9697528  87.2752931
  45.3039263  18.8502879  87.2031258  46.5991701  18.0820026  87.3579192
  34.0075782   7.1295342  78.9662298  33.6788488   6.2492721  78.7837404
  34.3615153   7.0743010  79.8538687  43.2555361  18.7650244  83.4757283
  43.1080323  17.8366952  83.6564853  44.0808854  18.7870335  82.9914358
  37.1217605   7.4168311  79.3337775  37.4613678   7.9454233  78.6116384
  37.5689726   7.7548718  80.1096342  46.8589483  19.5878803  84.5622156
  47.7836030  19.3821664  84.4246607  46.6904786  19.3395204  85.4711497
  39.8161046   5.8005362  88.7840843  39.4757866   5.0013175  89.1861523
  39.1100052   6.1007073  88.2117677  40.4677518   2.8854675  87.2368166
  41.2903587   2.4115153  87.1147057  40.7115581   3.6645158  87.7366853
  39.1085752   5.9142933  77.5331068  39.8294115   6.2924186  77.0294785
  38.4851056   6.6331810  77.6366046  43.2516875   6.6188082  78.4689400
  43.4680490   7.5012720  78.1678229  42.7710942   6.2274295  77.7395042
  37.9916097   9.5773795  85.0460145  37.8460677   9.8914098  85.9384427
  37.5141300  10.1958696  84.4931044  39.8512479   6.5676343  85.0941035
  39.8374048   5.6717436  84.7573333  40.5684908   6.5747007  85.7279321
  41.7038610   7.0013683  87.1394162  41.4456388   7.9230754  87.1378492
  41.1723651   6.6044118  87.8294626  46.6484799  20.1064470  79.9184247
  46.8221676  19.5410893  79.1658100  47.1413690  20.9065365  79.7363737
  32.4661759  12.1179140  87.9847806  31.9215227  12.8938948  88.1168081
  33.3441109  12.4649944  87.8266928  39.2549375   5.4490723  80.3628605
  39.3765287   4.5207370  80.5619492  38.9651418   5.4629409  79.4506920
  42.1240566   3.1345634  83.4995325  42.1462263   3.1984967  82.5447304
  42.5408625   2.2950143  83.6935831  52.5024190  12.8700893  81.5374547
  52.9455336  12.1208219  81.1393670  51.6250700  12.8611030  81.1548279
  47.6359971  19.4231235  77.0181146  48.3310876  20.0437928  77.2368460
  47.9783122  18.5726586  77.2933524  49.5351395  16.8730940  78.5468476
  50.0602719  17.2118213  77.8217796  49.4473747  15.9377956  78.3631611
  41.1971443  20.7865014  90.6758353  41.5058570  20.5414161  91.5481053
  41.9946925  20.9911653  90.1877223  41.2192055  22.9402924  82.9063730
  40.7797046  22.4479302  83.5996586  41.9700172  22.3975891  82.6655805
  33.6984394  19.1314465  82.9088358  34.5242414  18.8318236  82.5287001
  33.3478446  18.3622087  83.3578146  38.6665927  18.4840933  84.9786031
  38.0445937  17.8211638  84.6788259  39.3370794  18.5102065  84.2959679
  31.8992999  17.0500791  83.8677291  31.0624908  16.6222965  83.6861293
  31.8716645  17.2433234  84.8048083  49.2245301  17.5063844  93.8519674
  48.4340844  17.4887983  93.3124174  48.9878655  18.0452138  94.6068711
  49.3443176  14.3556310  91.1652403  49.3941181  14.1906318  92.1067926
  49.2357099  13.4883569  90.7750284  38.2279434  17.0344856  78.4544492
  38.3767555  17.7180321  77.8011165  39.0345878  17.0149946  78.9693948
  46.6346938  10.3387238  92.4811710  47.5356801  10.1993703  92.1895707
  46.7094913  10.5041693  93.4209887  40.9689743   7.7154093  91.3264896
  40.0993053   8.0087659  91.0547485  41.2049224   8.2994538  92.0472160
  50.8461373  16.7753252  91.4094425  50.5546181  17.1383232  92.2457885
  50.2333504  16.0620260  91.2307757  52.0457055  14.3406132  83.9296995
  52.8803946  14.7795936  84.0934555  52.1816184  13.8644785  83.1105241
  49.0948561  11.8985867  89.8774482  49.5702682  12.0913513  89.0693334
  48.1714126  11.9545052  89.6317866  35.9832067  13.0610034  79.4605561
  35.7378109  12.1572364  79.6585771  36.1527982  13.0627184  78.5185039
  43.6728777   3.9333710  88.8430316  44.1910721   4.6694737  88.5176805
  43.3183910   4.2397703  89.6777076  35.2527715   8.7938391  76.9591722
  34.5596960   8.8682746  76.3031758  35.0079467   8.0298735  77.4813239
  43.9241371   0.3533993  84.3631213  44.2043125  -0.3142818  84.9891640
  44.7091978   0.5463088  83.8505877  41.7274840  19.5292987  75.9256239
  41.1548807  20.1483174  75.4726711  42.3007634  20.0792348  76.4596161
  47.7950230   8.7751627  88.1102788  48.7467653   8.8749724  88.1315012
  47.6253680   7.9829895  88.6200872  45.8164609   5.8607210  88.2962189
  45.2214541   6.1412223  87.6008678  45.5314306   6.3501111  89.0678930
  44.9472100  19.8130137  77.0564822  45.8802773  19.7475698  77.2597697
  44.8595313  20.6486404  76.5979354  47.5760116  19.1296007  74.0168769
  47.4973748  18.7955871  74.9104527  48.3969783  19.6217775  74.0160241
  50.2738308  11.9957746  87.2245088  50.2414628  11.0573747  87.4104772
  50.8838931  12.0741783  86.4910913  42.1121638  10.8653799  73.2672292
  43.0580743  10.7360007  73.3360710  41.7335883  10.1268461  73.7441720
  50.4232796   8.7868790  87.2703371  49.9071845   8.0027246  87.0833300
  51.3072745   8.4587506  87.4349890  48.0843523   2.5309805  83.2299184
  47.8868344   2.2224894  84.1142516  48.6943229   3.2571444  83.3597113
  56.0914857  13.0573753  86.3651125  56.8218246  12.7959041  86.9258828
  55.4821803  12.3202475  86.4053193  54.1730155  11.1981616  86.9625576
  53.4463318  11.0637581  86.3542067  53.7577441  11.5058444  87.7682294
  41.9960331  14.9171545  94.7272949  42.9163340  15.0950144  94.9212995
  41.9609914  13.9727591  94.5752648  40.2964556   8.7903776  73.2027177
  39.3896011   8.4936888  73.2789891  40.5740537   8.4933594  72.3361463
  31.2142496  10.1110139  83.6526223  30.8945280   9.2575447  83.3600597
  30.6675924  10.3258717  84.4084191  34.9922403  12.8272580  87.3695730
  35.2108413  13.7589688  87.3883764  35.4048177  12.4680555  88.1550534
  41.9126621   3.3340665  79.3571418  41.1027350   2.9887750  79.7326664
  42.6011038   3.0248209  79.9459030  43.8417170   2.4118712  80.9795715
  44.3948208   2.8314166  81.6385738  44.0787256   1.4854460  81.0218671
  39.0663340   5.6490711  73.3439156  39.9282504   5.9745609  73.6034974
  39.2513684   4.8622207  72.8312222  31.0830756  13.7313051  85.6219345
  30.3894227  13.3167003  85.1089299  31.8303747  13.7733587  85.0252764
  47.2195977   4.5219237  80.4874379  46.6394646   5.1804041  80.1052432
  46.9531909   3.6996582  80.0761797  45.6699543   3.9224295  82.6895700
  46.1699321   4.0340830  81.8810018  46.3135151   3.6185348  83.3296508
  32.9967498  13.6631304  83.4985360  32.9738187  13.7618992  82.5467243
  33.3068135  14.5096455  83.8202526  35.6554876  15.7207459  87.6131974
  36.6098130  15.6891402  87.5461906  35.4567400  15.2598083  88.4282200
  36.2454258  14.2908575  90.1802772  37.0647147  14.7852654  90.2037609
  36.5191066  13.3740544  90.1520339  46.0020855   6.6819328  79.5430727
  45.1146710   6.9668978  79.3250922  46.4174844   6.5213091  78.6958004
  49.3535391   6.7065849  83.2585067  50.1295781   7.1962301  83.5309684
  48.6283525   7.1323903  83.7156936  51.7907949   7.4193468  84.3159007
  52.3852440   7.1789204  83.6052316  51.8634533   6.7000599  84.9432544
  34.0105105  21.2627079  84.6302172  33.8759573  20.5027480  84.0640170
  33.5937167  21.9867979  84.1630961  45.1464068  16.4464002  73.6378747
  45.8499918  16.6514005  74.2536403  44.4226717  17.0140764  73.9027831
  45.9761878  12.1973864  79.7581018  45.9197080  12.6542415  78.9188650
  46.5290221  11.4364548  79.5803860  49.7866684   7.9863596  80.5831137
  49.5303619   7.5860231  81.4139345  49.1619552   8.7007390  80.4581276
  54.0979022  10.7259669  83.0902429  53.5378580  10.7952858  83.8633991
  53.4922526  10.5500653  82.3701925  37.1674231  22.1596396  84.8420615
  37.0506615  23.1041828  84.7399305  36.3466677  21.8569957  85.2306414
  47.0550766  16.8846532  75.6877208  47.8896369  16.4527730  75.5054682
  46.8935108  16.7128545  76.6154102  46.7096658  13.3878645  77.0533547
  46.6545462  13.2222916  76.1121991  46.0842713  14.0954678  77.2095737
  44.0242565  15.6927557  96.3787110  44.8933725  15.8668209  96.0173745
  43.5449316  16.5121974  96.2562839  40.0192783   2.8886754  76.6318865
  40.0071453   3.8328594  76.7887136  40.9116205   2.7056899  76.3378326
  38.1928745  22.8124658  88.0576543  39.0955992  22.8448268  88.3743038
  37.9666115  21.8825109  88.0722879  39.9482347  21.5655644  84.7186622
  38.9977978  21.5657506  84.6050994  40.2514833  20.8188379  84.2022656
  43.8344903  -0.5170469  80.8864802  43.0677298  -1.0711983  81.0321484
  44.2455608  -0.4448601  81.7478954  55.6835041  27.4016183  85.7832384
  56.3213451  27.2822930  85.0795724  55.5655884  28.3497027  85.8420336
  52.4924747  27.3543611  85.7193909  52.1543258  27.2384676  84.8314444
  53.3614515  26.9534776  85.6994915  48.3511563  29.2079087  81.7090800
  47.7876428  29.1169024  80.9407088  48.2363958  28.3878992  82.1893292
  52.9744530  28.5078463  91.6780114  52.9633171  28.1131261  90.8060618
  53.1365169  27.7744535  92.2713886  45.8975995  30.7030279  84.5475020
  46.6897286  30.3621104  84.1321320  46.1372645  30.8125254  85.4677174
  47.8566748  29.9639192  77.4192399  48.6297624  29.4168179  77.2805275
  48.2092147  30.8283441  77.6306861  49.6951791  31.2915574  90.6259298
  49.4041657  32.1961205  90.5105965  50.3308775  31.3332102  91.3403368
  50.6207998  28.6692423  87.2160658  51.2171570  28.4448445  86.5017621
  50.6782969  27.9277168  87.8186106  50.1933026  26.1231858  75.0510849
  50.4458547  25.6013380  74.2894312  49.2557585  25.9598004  75.1537533
  55.2376309  25.1267637  82.8585592  56.0239398  24.7087060  82.5076009
  55.5015013  26.0313729  83.0267241  60.6384736  25.0642870  83.7618571
  61.3709908  24.4942087  83.9956400  59.8824092  24.6764470  84.2025076
  49.9129315  28.0259964  77.2535224  49.7965573  27.3504868  77.9216308
  50.0231575  27.5392338  76.4367377  52.2560856  27.4870111  80.9581913
  51.8919063  26.9600732  81.6694835  53.1127972  27.0968580  80.7848399
  58.1610157  18.7764444  88.2213179  57.8293481  19.6459855  87.9974394
  57.5655770  18.4600728  88.9007210  51.8966343  22.5160011  75.9543262
  52.0640745  23.3840247  76.3213733  51.7063512  22.6787293  75.0304551
  54.6541676  30.9776990  87.6209092  54.3542399  31.8802029  87.5124899
  54.3092736  30.7109173  88.4730245  48.1054158  27.4290787  83.6545797
  47.1804654  27.2967001  83.8623488  48.3538571  28.2085006  84.1515739
  58.0538820  23.4959530  85.3006529  57.1455697  23.4274939  85.0065290
  58.0026416  23.9731475  86.1288355  51.8755564  24.9717668  76.9389929
  51.7555189  25.4174719  77.7775409  51.1808152  25.3202986  76.3803467
  45.4662969  27.0724060  84.4889586  45.5955350  27.3258539  85.4028997
  44.7860420  27.6651768  84.1694241  52.1279686  24.9149176  93.2441427
  51.3513020  25.4743096  93.2344291  52.7670249  25.4005959  93.7656297
  59.9200466  21.6975968  87.0784403  59.2774847  21.9908502  86.4324198
  59.4155395  21.5828889  87.8837600  57.5740630  25.4439142  77.7670263
  58.4858486  25.6766528  77.5917960  57.0650277  26.0276186  77.2045341
  50.3826058  27.7234629  92.8059394  51.1240742  28.2619673  92.5294217
  49.6763043  28.3500918  92.9630946  55.8581398  29.8663770  91.4031555
  56.2664754  29.4246180  90.6586188  55.1358659  29.2916397  91.6565748
  52.2112468  24.8036376  88.7765112  53.0573663  25.2275790  88.9199761
  52.1511105  24.1470001  89.4703675  55.3611913  22.4640745  90.4346286
  55.1172845  23.2182805  89.8980562  55.6371844  22.8426092  91.2693533
  57.3150376  29.0079357  89.1123551  57.5267271  29.6511117  88.4357932
  57.2680124  28.1741674  88.6445481  54.9176605  21.6197178  86.0160124
  54.0561084  21.9178431  86.3076861  54.9439039  21.8367577  85.0841156
  48.6262255  29.7110850  85.3613692  49.1963612  30.1398118  84.7231177
  49.2170367  29.4293434  86.0597878  50.6707060  26.2862521  79.2323494
  51.3731104  26.7383564  79.6997421  50.3387689  25.6446339  79.8603387
  49.1187422  24.8774277  93.6074704  48.4886082  25.5590558  93.8410101
  49.0123510  24.7657359  92.6627842  44.4132394  24.5446073  84.5340628
  43.6231448  24.8003602  84.0580739  44.9043642  25.3594411  84.6392668
  58.4296204  31.8851312  87.2845909  59.2513647  31.4831500  87.0028590
  58.4258607  31.7819547  88.2362025  46.3647140  24.9090653  81.4924105
  45.5678303  25.0209347  82.0107600  46.1372732  25.2477305  80.6264995
  52.1952807  31.4335356  89.4406619  52.2597240  31.8955763  90.2764791
  51.4863731  30.8032721  89.5688929  42.6970097  24.7976564  86.9655619
  42.9478136  25.6823574  87.2313195  43.2329646  24.6181165  86.1930711
  48.3968164  19.1795043  95.9699955  48.0035110  18.6261242  96.6447599
  49.2134305  19.4905622  96.3606472  45.3630222  30.6178901  79.8813525
  45.8754743  31.4122152  80.0319089  46.0152935  29.9205192  79.8147126
  47.1725107  33.7344658  81.9636278  47.3491735  34.6562622  81.7757262
  47.9681940  33.4203077  82.3930658  51.3136125  20.5952922  93.5620211
  52.0545839  21.1960075  93.4824674  51.5454048  19.8530560  93.0038254
  46.4577463  25.7809289  91.8398441  46.3430979  24.8794547  92.1405540
  45.6021981  26.0272986  91.4883258  53.5369301  33.7227030  93.4385942
  53.0933155  32.9363408  93.1206846  54.1986515  33.9106180  92.7729832
  48.2956422  35.2522831  87.9646620  48.8463848  35.1239895  87.1923614
  47.4567898  35.5517720  87.6141513  55.6350539  34.0029830  91.4667343
  55.6169015  34.8238711  90.9747612  56.5570459  33.8783905  91.6917484
  52.0923593  31.5173959  92.3090851  52.6251930  30.7562247  92.0790159
  51.5637675  31.2247611  93.0515006  55.2593288  16.6234025  87.8384493
  54.9157558  17.5135667  87.7623604  55.6272251  16.4335683  86.9754078
  43.3279139  28.9467556  80.6573095  44.1654361  29.3564564  80.4406803
  43.5057407  28.0066998  80.6273289  55.2243571  26.6142636  76.3456928
  54.7090195  27.3847241  76.5845316  54.9520880  25.9407772  76.9689990
  52.8090682  21.4592337  81.4042167  51.9532278  21.0699187  81.2247805
  53.2217634  21.5384298  80.5441952  54.3389829  18.9938680  85.8033726
  53.8354624  18.9568815  84.9901532  54.6320436  19.9031423  85.8630383
  50.5832715  19.0777410  84.8099908  51.4485711  18.8820219  84.4505797
  50.6510224  18.8487762  85.7369265  55.0129874  24.4869728  78.1716709
  54.7080010  24.8015877  79.0226853  55.9660316  24.5651148  78.2144042
  48.1895034  21.3079618  82.1816275  48.7638786  21.0854799  81.4489468
  48.7766016  21.3768312  82.9344876  48.5164621  23.3384079  76.2012160
  47.6801933  23.6758765  76.5221435  48.3769391  23.2033059  75.2639297
  50.4917701  18.1820867  80.9091344  49.8382114  17.8669884  80.2847959
  50.4498176  17.5596607  81.6351167  51.6028906  28.4640162  72.8244636
  50.6955968  28.2329415  73.0235785  52.0999938  27.6677781  73.0118618
  53.7255442  24.6702800  85.2338992  52.8078003  24.8917747  85.0760680
  54.1415585  24.7449111  84.3750699  54.5090490  26.0694216  80.3641672
  55.2562309  26.5815613  80.0548794  54.7782079  25.7478269  81.2246066
  52.7817140  28.5652757  77.3468626  51.8728359  28.2811790  77.4441096
  52.8112224  28.9851835  76.4871933  56.9569327  23.1051332  82.3460461
  56.2192084  22.5928718  82.6770704  57.2096100  22.6651714  81.5343738
  57.0580954  15.8827584  82.9402231  57.3639831  15.0224948  82.6528146
  57.7833559  16.4745204  82.7401225  43.3505310  26.2858271  81.3283829
  43.1529710  25.6927632  80.6034895  42.7951974  25.9810481  82.0459767
  51.3302034  26.1781377  83.4478422  51.3850644  25.2255214  83.3720898
  50.5193236  26.3340816  83.9319720  52.4793228  30.1061500  74.6856705
  52.0412657  29.3897359  74.2262342  53.2203668  30.3337615  74.1241796
  49.2694394  24.7958437  81.2068801  48.4562259  25.0952608  81.6133993
  49.7653388  24.4014126  81.9243283  51.4202972  34.7916194  83.1403065
  51.3779150  35.0177040  82.2111597  52.3365670  34.5579569  83.2888866
  54.8668605  25.2600262  90.0383695  55.2217993  25.4871735  90.8978160
  55.5140737  25.5918638  89.4160950  60.5966342  28.3818697  80.7433024
  60.4584241  28.5720293  79.8154213  60.2402561  29.1438080  81.2001075
  48.7608468  22.3676793  86.8230036  49.4007848  22.2265552  86.1252999
  47.9285999  22.0811306  86.4468638  49.5368772  31.6679223  82.9365028
  50.3309371  31.1729543  82.7347603  48.8260465  31.1397086  82.5732734
  54.3563617  34.0497319  87.2877396  54.4100639  34.6188255  88.0555112
  53.4878398  34.2199204  86.9231433  45.8451536  25.8122305  79.0124781
  44.9149124  25.7506760  79.2294743  45.9409008  25.2898258  78.2161422
  45.7637085  22.3377118  81.6003022  46.0243902  23.2522451  81.4912183
  46.5854257  21.8701560  81.7499635  47.2362010  23.7514875  88.7701847
  47.9085064  23.5432237  88.1214496  46.4091797  23.5536961  88.3307079
  53.1387582  20.3776816  90.7867508  52.4915497  21.0766765  90.6931984
  53.9088598  20.8112960  91.1543756  56.5466380  30.6425668  93.8618061
  56.3951887  30.4136220  92.9448145  56.5371060  31.5996269  93.8749406
  53.3151717  28.2157581  88.8464328  54.2443777  28.3668740  88.6733295
  52.8942747  28.3041601  87.9912974  52.1140048  32.2408245  86.6162865
  51.9751134  31.8727029  87.4888803  51.3254645  32.7555884  86.4446823
  47.6389507  27.0257478  89.5304284  47.5009305  26.2937717  90.1315823
  48.5494431  26.9366378  89.2488472  50.2671808  26.7377437  89.0187964
  50.9771427  26.0970629  88.9774582  50.2241116  26.9890332  89.9414145
  58.2558587  33.6744790  91.9394543  58.1971133  32.9904011  91.2725126
  58.6578105  34.4163780  91.4875169  48.9800742  23.7242655  90.8383603
  48.4438099  23.2733393  91.4905200  48.3917451  23.8588564  90.0954068
  48.3903001  23.1831306  73.4010067  47.5132467  23.0620107  73.0372314
  48.8660754  22.3917385  73.1488956  58.2575994  31.6384374  90.1708523
  57.3702773  31.3010296  90.2934922  58.8274545  30.9067406  90.4077288
  39.9105141  27.9708466  83.4951574  40.5976181  27.6570196  82.9072589
  39.7553270  28.8749831  83.2218825  44.7139863  22.8598663  87.9236598
  44.6298052  22.2524332  87.1887008  43.8922570  23.3507681  87.9246094
  51.7877148  36.2985827  87.1369766  51.7147319  37.1040798  87.6489070
  51.3454541  36.4977793  86.3117787  54.8863577  21.3452226  83.2906793
  55.3832277  20.5922189  82.9707863  54.1150559  21.3816543  82.7250002
  62.7393335  27.0492592  84.9325084  62.7283211  27.9317307  84.5619017
  61.8710714  26.6964143  84.7379621  54.2475831  36.1972661  89.2927924
  54.9603803  36.8320126  89.2203826  53.7565860  36.2936527  88.4767926
  51.4698546  23.4869609  83.0178477  51.0996334  22.9340650  83.7059383
  51.9657638  22.8827743  82.4653477  59.3565909  25.9441233  81.3995250
  59.8226361  26.7769224  81.3255553  59.8073410  25.4786214  82.1040509
  49.2987745  33.9467104  90.1133495  49.9997204  34.5803587  90.2662890
  48.8282860  34.2881836  89.3529135  57.3282572  18.3121820  85.4386152
  56.4145652  18.5426047  85.6068359  57.7575673  18.3960264  86.2900184
  57.0989031  26.5011712  87.9386046  56.4460481  26.7487619  87.2838498
  57.4769410  25.6875850  87.6048523  53.1476604  27.2431523  94.4252083
  52.4717241  27.1425652  95.0954458  53.9704237  27.0870736  94.8888080
  44.8955463  33.4803459  87.0464598  45.4808899  32.7347147  87.1792502
  44.6980301  33.7907416  87.9301262  47.7494118  36.5154707  82.0627040
  47.0804493  37.0000834  81.5791080  47.6106988  36.7623927  82.9770419
  39.4873117  26.0509059  85.7669041  39.5257217  25.5172650  86.5606159
  38.9813410  25.5244265  85.1480018  51.8899386  38.5498450  88.6609699
  52.4417694  38.7130072  89.4258784  52.2305580  39.1402888  87.9889724
  46.8663880  20.8973600  89.2631583  46.9305206  21.7588431  88.8508981
  46.8031000  20.2847602  88.5303942  46.3416152  22.9696732  92.9104618
  46.9688191  22.5873810  93.5242142  45.4844071  22.7510934  93.2760310
  56.7410261  33.3759708  94.5158353  57.2850165  33.9889666  94.0213308
  56.1597106  33.9339286  95.0325366  43.1181695  24.7773162  78.8422973
  43.4135136  23.8683840  78.7890026  42.2169731  24.7560901  78.5203975
  55.0267774  36.4980426  85.6473381  54.9018913  35.6970166  85.1384326
  55.6846865  36.9926619  85.1587351  46.6475942  22.8529158  84.8250521
  45.9262528  23.4665126  84.6857994  47.4369198  23.3886923  84.7467167
  57.0902682  34.2989446  87.2752931  56.1433018  34.1794797  87.2031258
  57.4385455  33.4111944  87.3579192  49.4502255  20.1883585  91.0991173
  49.9736657  20.4345881  91.8617482  49.2314589  21.0203619  90.6794310
  44.8469537  22.4587259  78.9662298  44.5182243  21.5784638  78.7837404
  45.2008907  22.4034928  79.8538687  47.9611360  22.7460229  79.3337775
  48.3007432  23.2746150  78.6116384  48.4083480  23.0840635  80.1096342
  50.6554801  21.1297280  88.7840843  50.3151621  20.3305093  89.1861523
  49.9493807  21.4298991  88.2117677  51.3071272  18.2146592  87.2368166
  52.1297342  17.7407070  87.1147057  51.5509336  18.9937076  87.7366853
  49.9479507  21.2434851  77.5331068  50.6687869  21.6216103  77.0294785
  49.3244811  21.9623727  77.6366046  54.0910630  21.9480000  78.4689400
  54.3074244  22.8304637  78.1678229  53.6104697  21.5566213  77.7395042
  48.8309851  24.9065713  85.0460145  48.6854432  25.2206016  85.9384427
  48.3535055  25.5250613  84.4931044  50.6906234  21.8968261  85.0941035
  50.6767803  21.0009354  84.7573333  51.4078662  21.9038925  85.7279321
  52.5432365  22.3305601  87.1394162  52.2850143  23.2522672  87.1378492
  52.0117405  21.9336036  87.8294626  43.3055513  27.4471057  87.9847806
  42.7608981  28.2230865  88.1168081  44.1834863  27.7941862  87.8266928
  50.0943130  20.7782641  80.3628605  50.2159041  19.8499287  80.5619492
  49.8045172  20.7921327  79.4506920  52.9634320  18.4637552  83.4995325
  52.9856017  18.5276885  82.5447304  53.3802379  17.6242060  83.6935831
  44.0921535  26.5740954  90.8777963  43.3503271  26.7223589  91.4642594
  43.7714279  26.8349219  90.0144713  52.0365198  36.1156932  90.6758353
  52.3452324  35.8706079  91.5481053  52.8340680  36.3203570  90.1877223
  44.5378149  34.4606382  82.9088358  45.3636169  34.1610154  82.5287001
  44.1872201  33.6914005  83.3578146  49.5059682  33.8132850  84.9786031
  48.8839691  33.1503555  84.6788259  50.1764549  33.8393982  84.2959679
  42.7386754  32.3792709  83.8677291  41.9018662  31.9514883  83.6861293
  42.7110399  32.5725152  84.8048083  49.5784209  22.2914638  94.5718537
  49.6272365  23.1676761  94.1896307  50.1206724  21.7492032  93.9990181
  60.0639055  32.8355762  93.8519674  59.2734599  32.8179901  93.3124174
  59.8272410  33.3744055  94.6068711  60.1836930  29.6848228  91.1652403
  60.2334935  29.5198236  92.1067926  60.0750854  28.8175487  90.7750284
  49.0673189  32.3636774  78.4544492  49.2161309  33.0472238  77.8011165
  49.8739632  32.3441864  78.9693948  57.4740693  25.6679156  92.4811710
  58.3750555  25.5285621  92.1895707  57.5488667  25.8333611  93.4209887
  51.8083498  23.0446011  91.3264896  50.9386807  23.3379577  91.0547485
  52.0442978  23.6286456  92.0472160  61.6855127  32.1045170  91.4094425
  61.3939935  32.4675150  92.2457885  61.0727258  31.3912178  91.2307757
  59.9342315  27.2277784  89.8774482  60.4096437  27.4205431  89.0693334
  59.0107881  27.2836970  89.6317866  46.8225822  28.3901951  79.4605561
  46.5771864  27.4864281  79.6585771  46.9921736  28.3919102  78.5185039
  54.5122532  19.2625628  88.8430316  55.0304476  19.9986655  88.5176805
  54.1577664  19.5689621  89.6777076  46.0921469  24.1230309  76.9591722
  45.3990714  24.1974664  76.3031758  45.8473221  23.3590653  77.4813239
  54.7635126  15.6825910  84.3631213  55.0436880  15.0149099  84.9891640
  55.5485733  15.8755006  83.8505877  58.6343984  24.1043544  88.1102788
  59.5861407  24.2041642  88.1315012  58.4647435  23.3121813  88.6200872
  56.6558364  21.1899128  88.2962189  56.0608296  21.4704140  87.6008678
  56.3708060  21.6793028  89.0678930  61.1132062  27.3249664  87.2245088
  61.0808382  26.3865665  87.4104772  61.7232686  27.4033701  86.4910913
  52.9515393  26.1945717  73.2672292  53.8974498  26.0651925  73.3360710
  52.5729638  25.4560379  73.7441720  61.2626551  24.1160707  87.2703371
  60.7465599  23.3319164  87.0833300  62.1466499  23.7879424  87.4349890
  58.9237277  17.8601723  83.2299184  58.7262099  17.5516811  84.1142516
  59.5336983  18.5863362  83.3597113  65.0123909  26.5273533  86.9625576
  64.2857073  26.3929498  86.3542067  64.5971196  26.8350362  87.7682294
  52.8354085  30.2463463  94.7272949  53.7557095  30.4242062  94.9212995
  52.8003668  29.3019508  94.5752648  51.1358310  24.1195693  73.2027177
  50.2289765  23.8228806  73.2789891  51.4134291  23.8225511  72.3361463
  42.0536250  25.4402057  83.6526223  41.7339035  24.5867365  83.3600597
  41.5069679  25.6550635  84.4084191  45.8316158  28.1564498  87.3695730
  46.0502168  29.0881606  87.3883764  46.2441932  27.7972472  88.1550534
  52.7520376  18.6632583  79.3571418  51.9421104  18.3179668  79.7326664
  53.4404793  18.3540127  79.9459030  54.6810924  17.7410630  80.9795715
  55.2341963  18.1606083  81.6385738  54.9181010  16.8146378  81.0218671
  50.7044023  23.7297704  96.7598479  50.6040750  24.6792061  96.6910570
  50.4865565  23.4015942  95.8874549  49.9057095  20.9782629  73.3439156
  50.7676259  21.3037527  73.6034974  50.0907439  20.1914125  72.8312222
  41.9224510  29.0604968  85.6219345  41.2287982  28.6458921  85.1089299
  42.6697501  29.1025505  85.0252764  58.0589731  19.8511155  80.4874379
  57.4788400  20.5095959  80.1052432  57.7925664  19.0288500  80.0761797
  56.5093298  19.2516213  82.6895700  57.0093076  19.3632747  81.8810018
  57.1528905  18.9477266  83.3296508  50.5675293  27.1594842  95.5763541
  50.0842375  27.9595203  95.7827430  50.6536232  27.1702787  94.6230985
  43.8361253  28.9923222  83.4985360  43.8131941  29.0910909  82.5467243
  44.1461889  29.8388373  83.8202526  46.4948631  31.0499377  87.6131974
  47.4491884  31.0183319  87.5461906  46.2961154  30.5890001  88.4282200
  47.0848013  29.6200493  90.1802772  47.9040902  30.1144572  90.2037609
  47.3584821  28.7032461  90.1520339  56.8414609  22.0111245  79.5430727
  55.9540464  22.2960896  79.3250922  57.2568598  21.8505009  78.6958004
  60.1929145  22.0357766  83.2585067  60.9689535  22.5254219  83.5309684
  59.4677279  22.4615821  83.7156936  62.6301704  22.7485386  84.3159007
  63.2246195  22.5081122  83.6052316  62.7028288  22.0292516  84.9432544
  44.8498860  36.5918997  84.6302172  44.7153328  35.8319397  84.0640170
  44.4330922  37.3159896  84.1630961  60.6260439  23.3155513  80.5831137
  60.3697373  22.9152149  81.4139345  60.0013307  24.0299307  80.4581276
  64.9372777  26.0551586  83.0902429  64.3772335  26.1244776  83.8633991
  64.3316280  25.8792571  82.3701925  42.3382927  23.9538627  90.8794969
  42.9841791  23.4437581  91.3682194  42.1300078  24.6907309  91.4538394
  54.8636319  31.0219474  96.3787110  55.7327479  31.1960127  96.0173745
  54.3843071  31.8413891  96.2562839  50.8586538  18.2178672  76.6318865
  50.8465207  19.1620512  76.7887136  51.7509960  18.0348817  76.3378326
  50.7876102  36.8947562  84.7186622  49.8371733  36.8949424  84.6050994
  51.0908588  36.1480297  84.2022656  54.6738657  14.8121448  80.8864802
  53.9071053  14.2579935  81.0321484  55.0849362  14.8843317  81.7478954
  46.6780418  21.1006244  94.9769983  47.5411880  20.7443049  95.1873308
  46.1045829  20.7620139  95.6645388  60.5345546  46.6207492  90.6259298
  60.2435412  47.5253123  90.5105965  61.1702530  46.6624020  91.3403368
  59.9581176  40.2066195  93.6074704  59.3279837  40.8882476  93.8410101
  59.8517264  40.0949276  92.6627842  53.5363852  40.1268481  86.9655619
  53.7871890  41.0115491  87.2313195  54.0723400  39.9473083  86.1930711
  59.2361919  34.5086961  95.9699955  58.8428865  33.9553159  96.6447599
  60.0528059  34.8197539  96.3606472  64.3763056  49.0518947  93.4385942
  63.9326910  48.2655326  93.1206846  65.0380269  49.2398098  92.7729832
  65.7062360  40.5892179  90.0383695  66.0611748  40.8163652  90.8978160
  66.3534491  40.9210556  89.4160950  55.5533618  38.1890580  87.9236598
  55.4691807  37.5816250  87.1887008  54.7316324  38.6799599  87.9246094
  62.7293141  53.8790368  88.6609699  63.2811449  54.0421989  89.4258784
  63.0699334  54.4694806  87.9889724  57.7057634  36.2265518  89.2631583
  57.7698961  37.0880349  88.8508981  57.6424754  35.6139519  88.5303942
  57.1809907  38.2988650  92.9104618  57.8081945  37.9165727  93.5242142
  56.3237826  38.0802852  93.2760310  62.8758952  51.4448849  90.6758353
  63.1846079  51.1997996  91.5481053  63.6734434  51.6495488  90.1877223
  60.4177964  37.6206556  94.5718537  60.4666119  38.4968679  94.1896307
  60.9600478  37.0783949  93.9990181  61.5437778  39.0589621  96.7598479
  61.4434505  40.0083978  96.6910570  61.3259320  38.7307860  95.8874549
  61.4069048  42.4886760  95.5763541  60.9236130  43.2887120  95.7827430
  61.4929987  42.4994705  94.6230985  53.1776682  39.2830545  90.8794969
  53.8235545  38.7729499  91.3682194  52.9693833  40.0199226  91.4538394
  57.5174173  36.4298162  94.9769983  58.3805634  36.0734967  95.1873308
  56.9439583  36.0912057  95.6645388  72.0613567  58.3818464  92.8059394
  72.8028251  58.9203508  92.5294217  71.3550552  59.0084753  92.9630946
  70.7974931  55.5358113  93.6074704  70.1673591  56.2174393  93.8410101
  70.6911019  55.4241194  92.6627842  64.3757606  55.4560399  86.9655619
  64.6265645  56.3407409  87.2313195  64.9117155  55.2765001  86.1930711
  88.1989706  58.8873896  83.6330880  87.4453414  58.3181294  83.4774885
  88.3337247  58.8536561  84.5801515  68.1364972  56.4393125  91.8398441
  68.0218488  55.5378382  92.1405540  67.2809490  56.6856822  91.4883258
  75.2156810  64.3810865  93.4385942  74.7720664  63.5947244  93.1206846
  75.8774024  64.5690016  92.7729832  83.1638780  61.1502760  88.2877180
  83.3574671  62.0548571  88.5336455  83.0639399  60.6910180  89.1215766
  79.9346096  64.3328626  91.9394543  79.8758642  63.6487846  91.2725126
  80.3365614  65.0747616  91.4875169  66.5742972  64.1387295  87.0464598
  67.1596408  63.3930982  87.1792502  66.3767810  64.4491251  87.9301262
  61.1660626  56.7092895  85.7669041  61.2044726  56.1756485  86.5606159
  60.6600919  56.1828100  85.1480018  73.5686895  69.2082286  88.6609699
  74.1205203  69.3713907  89.4258784  73.9093089  69.7986723  87.9889724
  68.0203661  53.6280568  92.9104618  68.6475700  53.2457645  93.5242142
  67.1631580  53.4094770  93.2760310  78.4197770  64.0343543  94.5158353
  78.9637674  64.6473501  94.0213308  77.8384615  64.5923121  95.0325366
  64.9843022  58.1054893  87.9847806  64.4396490  58.8814701  88.1168081
  65.8622372  58.4525697  87.8266928  80.1541235  65.4106988  77.0181146
  80.8492140  66.0313681  77.2368460  80.4964385  64.5602339  77.2933524
  65.7709044  57.2324789  90.8777963  65.0290780  57.3807424  91.4642594
  65.4501788  57.4933054  90.0144713  71.2571718  52.9498474  94.5718537
  71.3059874  53.8260597  94.1896307  71.7994233  52.4075867  93.9990181
  81.7426564  63.4939597  93.8519674  80.9522108  63.4763736  93.3124174
  81.5059919  64.0327891  94.6068711  81.8624439  60.3432063  91.1652403
  81.9122444  60.1782071  92.1067926  81.7538362  59.4759322  90.7750284
  83.3642636  62.7629005  91.4094425  83.0727444  63.1258986  92.2457885
  82.7514767  62.0496013  91.2307757  81.6129824  57.8861620  89.8774482
  82.0883946  58.0789266  89.0693334  80.6895390  57.9420805  89.6317866
  80.3131493  54.7627380  88.1102788  81.2648916  54.8625477  88.1315012
  80.1434944  53.9705648  88.6200872  80.0941380  65.1171760  74.0168769
  80.0155011  64.7831624  74.9104527  80.9151047  65.6093528  74.0160241
  82.7919571  57.9833499  87.2245088  82.7595891  57.0449500  87.4104772
  83.4020195  58.0617536  86.4910913  88.6096121  59.0449506  86.3651125
  89.3399509  58.7834794  86.9258828  88.0003066  58.3078228  86.4053193
  74.5141594  60.9047298  94.7272949  75.4344604  61.0825897  94.9212995
  74.4791177  59.9603344  94.5752648  72.3831532  54.3881539  96.7598479
  72.2828259  55.3375896  96.6910570  72.1653074  54.0599778  95.8874549
  63.6012019  59.7188804  85.6219345  62.9075491  59.3042756  85.1089299
  64.3485010  59.7609340  85.0252764  72.2462802  57.8178678  95.5763541
  71.7629884  58.6179038  95.7827430  72.3323741  57.8286623  94.6230985
  65.5148762  59.6507057  83.4985360  65.4919450  59.7494745  82.5467243
  65.8249398  60.4972208  83.8202526  68.7635522  60.2784328  90.1802772
  69.5828411  60.7728407  90.2037609  69.0372330  59.3616297  90.1520339
  66.5286369  67.2502832  84.6302172  66.3940837  66.4903233  84.0640170
  66.1118431  67.9743732  84.1630961  86.6160286  56.7135422  83.0902429
  86.0559844  56.7828611  83.8633991  86.0103789  56.5376406  82.3701925
  69.6855494  68.1472149  84.8420615  69.5687879  69.0917581  84.7399305
  68.8647941  67.8445711  85.2306414  64.0170436  54.6122462  90.8794969
  64.6629300  54.1021416  91.3682194  63.8087587  55.3491144  91.4538394
  76.5423828  61.6803310  96.3787110  77.4114988  61.8543962  96.0173745
  76.0630580  62.4997727  96.2562839  70.7110009  68.8000411  88.0576543
  71.6137255  68.8324021  88.3743038  70.4847379  67.8700862  88.0722879
  68.3567927  51.7590079  94.9769983  69.2199389  51.4026884  95.1873308
  67.7833338  51.4203974  95.6645388  88.2016304  73.3891936  85.7832384
  88.8394714  73.2698683  85.0795724  88.0837147  74.3372780  85.8420336
  85.0106010  73.3419364  85.7193909  84.6724522  73.2260429  84.8314444
  85.8795779  72.9410529  85.6994915  85.4925793  74.4954216  91.6780114
  85.4814434  74.1007014  90.8060618  85.6546433  73.7620288  92.2713886
  86.4492385  78.8625808  77.0205265  85.7980365  79.4479888  76.6339279
  87.2436748  79.3932003  77.0800302  82.2133055  77.2791327  90.6259298
  81.9222920  78.1836958  90.5105965  82.8490039  77.3207855  91.3403368
  83.1389261  74.6568176  87.2160658  83.7352834  74.4324198  86.5017621
  83.1964233  73.9152921  87.8186106  82.7114290  72.1107611  75.0510849
  82.9639810  71.5889133  74.2894312  81.7738849  71.9473757  75.1537533
  87.7557573  71.1143390  82.8585592  88.5420662  70.6962813  82.5076009
  88.0196277  72.0189482  83.0267241  87.9267650  76.5516240  77.5574249
  87.2913483  76.6250866  78.2695154  87.5965056  77.1409839  76.8793328
  93.1566000  71.0518623  83.7618571  93.8891172  70.4817840  83.9956400
  92.4005355  70.6640223  84.2025076  82.4310579  74.0135717  77.2535224
  82.3146837  73.3380621  77.9216308  82.5412838  73.5268091  76.4367377
  84.7742119  73.4745864  80.9581913  84.4100327  72.9476485  81.6694835
  85.6309235  73.0844333  80.7848399  90.6791420  64.7640197  88.2213179
  90.3474745  65.6335608  87.9974394  90.0837033  64.4476481  88.9007210
  84.4147606  68.5035764  75.9543262  84.5822009  69.3716000  76.3213733
  84.2244775  68.6663046  75.0304551  87.1722940  76.9652743  87.6209092
  86.8723663  77.8677782  87.5124899  86.8273999  76.6984926  88.4730245
  90.5720083  69.4835283  85.3006529  89.6636961  69.4150692  85.0065290
  90.5207679  69.9607228  86.1288355  84.3936827  70.9593422  76.9389929
  84.2736452  71.4050472  77.7775409  83.6989416  71.3078739  76.3803467
  82.1543719  83.7297063  80.5880060  82.0767749  84.6804888  80.6668540
  81.5505363  83.3842936  81.2454986  84.6460949  70.9024929  93.2441427
  83.8694283  71.4618849  93.2344291  85.2851512  71.3881712  93.7656297
  92.4381730  67.6851722  87.0784403  91.7956110  67.9784255  86.4324198
  91.9336658  67.5704642  87.8837600  90.0921893  71.4314895  77.7670263
  91.0039750  71.6642281  77.5917960  89.5831541  72.0151939  77.2045341
  82.9007321  73.7110382  92.8059394  83.6422006  74.2495426  92.5294217
  82.1944307  74.3376671  92.9630946  88.3762661  75.8539523  91.4031555
  88.7846017  75.4121933  90.6586188  87.6539923  75.2792150  91.6565748
  84.7293731  70.7912129  88.7765112  85.5754926  71.2151543  88.9199761
  84.6692369  70.1345754  89.4703675  88.6991476  76.4140713  85.1583844
  88.0700338  76.5786427  84.4559912  88.3117138  76.8282323  85.9294808
  92.5780708  77.3495151  82.5128208  91.8931746  77.7294052  81.9625241
  92.6624557  77.9590478  83.2460156  87.8793176  68.4516498  90.4346286
  87.6354108  69.2058558  89.8980562  88.1553107  68.8301845  91.2693533
  89.8331639  74.9955110  89.1123551  90.0448534  75.6386870  88.4357932
  89.7861388  74.1617427  88.6445481  87.4357868  67.6072931  86.0160124
  86.5742347  67.9054184  86.3076861  87.4620303  67.8243330  85.0841156
  84.2519438  76.1515121  82.4233929  84.7157783  76.4302824  81.6338552
  83.9876236  75.2498566  82.2407020  81.1443519  75.6986603  85.3613692
  81.7144876  76.1273871  84.7231177  81.7351631  75.4169187  86.0597878
  83.1888324  72.2738274  79.2323494  83.8912367  72.7259317  79.6997421
  82.8568952  71.6322092  79.8603387  81.6368685  70.8650030  93.6074704
  81.0067346  71.5466311  93.8410101  81.5304773  70.7533112  92.6627842
  76.9313658  70.5321826  84.5340628  76.1412712  70.7879355  84.0580739
  77.4224905  71.3470164  84.6392668  90.9477467  77.8727065  87.2845909
  91.7694911  77.4707253  87.0028590  90.9439870  77.7695300  88.2362025
  84.7134071  77.4211109  89.4406619  84.7778503  77.8831516  90.2764791
  84.0044995  76.7908474  89.5688929  75.2151361  70.7852317  86.9655619
  75.4659399  71.6699327  87.2313195  75.7510909  70.6056918  86.1930711
  99.0383460  74.2165814  83.6330880  98.2847169  73.6473212  83.4774885
  99.1731001  74.1828478  84.5801515  84.4282088  79.0879216  79.3085600
  84.2927763  79.9330752  79.7370447  84.9691901  79.2898494  78.5451533
  80.9149428  65.1670796  95.9699955  80.5216374  64.6136995  96.6447599
  81.7315568  65.4781375  96.3606472  79.6906370  79.7220411  81.9636278
  79.8672999  80.6438375  81.7757262  80.4863204  79.4078830  82.3930658
  83.8317389  66.5828675  93.5620211  84.5727102  67.1835828  93.4824674
  84.0635312  65.8406313  93.0038254  78.9758727  71.7685042  91.8398441
  78.8612242  70.8670300  92.1405540  78.1203245  72.0148739  91.4883258
  86.0550565  79.7102783  93.4385942  85.6114419  78.9239161  93.1206846
  86.7167778  79.8981933  92.7729832  80.8137686  81.2398584  87.9646620
  81.3645111  81.1115648  87.1923614  79.9749162  81.5393473  87.6141513
  88.1531803  79.9905583  91.4667343  88.1350278  80.8114464  90.9747612
  89.0751723  79.8659658  91.6917484  84.6104857  77.5049712  92.3090851
  85.1433194  76.7438000  92.0790159  84.0818938  77.2123364  93.0515006
  87.7774552  62.6109778  87.8384493  87.4338821  63.5011420  87.7623604
  88.1453514  62.4211436  86.9754078  87.7424835  72.6018389  76.3456928
  87.2271458  73.3722994  76.5845316  87.4702143  71.9283525  76.9689990
  85.3271946  67.4468090  81.4042167  84.4713542  67.0574940  81.2247805
  85.7398897  67.5260051  80.5441952  86.8571092  64.9814433  85.8033726
  86.3535888  64.9444568  84.9901532  87.1501699  65.8907176  85.8630383
  83.1013978  65.0653163  84.8099908  83.9666975  64.8695972  84.4505797
  83.1691487  64.8363515  85.7369265  92.7159109  75.3550744  78.2810102
  91.9388551  75.0161903  77.8365264  93.3950590  75.3603367  77.6065067
  87.5311138  70.4745481  78.1716709  87.2261273  70.7891631  79.0226853
  88.4841580  70.5526901  78.2144042  85.9757570  76.6335705  79.8209663
  85.4478931  75.8988464  79.5082901  85.4745072  77.4110381  79.5749632
  90.9550416  74.8284725  84.9376710  90.2974090  75.5183987  85.0256838
  91.7590815  75.2181157  85.2810696  80.7076297  67.2955371  82.1816275
  81.2820049  67.0730552  81.4489468  81.2947280  67.3644065  82.9344876
  89.7655874  73.1829098  82.9880651  90.2787756  73.8159090  83.4902361
  90.4157098  72.5830293  82.6224011  81.0345884  69.3259832  76.2012160
  80.1983197  69.6634518  76.5221435  80.8950654  69.1908812  75.2639297
  84.1210170  74.4515915  72.8244636  83.2137232  74.2205168  73.0235785
  84.6181202  73.6553534  73.0118618  87.0278249  83.1613422  75.7441323
  86.3539947  83.4645119  76.3526280  87.4144071  83.9642502  75.3946780
  86.2436705  70.6578553  85.2338992  85.3259267  70.8793500  85.0760680
  86.6596849  70.7324864  84.3750699  87.0271753  72.0569969  80.3641672
  87.7743572  72.5691366  80.0548794  87.2963343  71.7354022  81.2246066
  85.2998403  74.5528510  77.3468626  84.3909622  74.2687543  77.4441096
  85.3293487  74.9727588  76.4871933  90.5317671  78.1635099  81.1159794
  90.0779998  77.3226009  81.1724984  89.9011637  78.7996498  81.4534574
  89.4750590  69.0927085  82.3460461  88.7373347  68.5804472  82.6770704
  89.7277364  68.6527467  81.5343738  88.9750610  80.0011596  82.0509612
  89.2673584  80.5616653  81.3321978  89.4849230  80.2940157  82.8062771
  89.5762218  61.8703337  82.9402231  89.8821094  61.0100701  82.6528146
  90.3014822  62.4620958  82.7401225  83.8483297  72.1657130  83.4478422
  83.9031907  71.2130967  83.3720898  83.0374499  72.3216569  83.9319720
  84.9974491  76.0937253  74.6856705  84.5593921  75.3773112  74.2262342
  85.7384932  76.3213368  74.1241796  81.7875657  70.7834190  81.2068801
  80.9743523  71.0828361  81.6133993  82.2834651  70.3889879  81.9243283
  83.9384235  80.7791947  83.1403065  83.8960414  81.0052793  82.2111597
  84.8546934  80.5455322  83.2888866  87.3849869  71.2476015  90.0383695
  87.7399257  71.4747488  90.8978160  88.0322000  71.5794391  89.4160950
  93.1147606  74.3694450  80.7433024  92.9765504  74.5596046  79.8154213
  92.7583825  75.1313833  81.2001075  81.2789732  68.3552546  86.8230036
  81.9189111  68.2141305  86.1252999  80.4467262  68.0687059  86.4468638
  93.1416985  76.4370977  85.7544295  93.5753492  76.3446267  86.6027349
  93.8548566  76.4128478  85.1164311  82.0550036  77.6554976  82.9365028
  82.8490634  77.1605296  82.7347603  81.3441728  77.1272839  82.5732734
  86.8744880  80.0373072  87.2877396  86.9281903  80.6064008  88.0555112
  86.0059662  80.2074957  86.9231433  79.7543274  69.7390628  88.7701847
  80.4266327  69.5307990  88.1214496  78.9273060  69.5412714  88.3307079
  94.0032535  76.4794678  88.2877180  94.1968425  77.3840489  88.5336455
  93.9033153  76.0202097  89.1215766  85.6568846  66.3652569  90.7867508
  85.0096761  67.0642518  90.6931984  86.4269861  66.7988713  91.1543756
  89.0647644  76.6301421  93.8618061  88.9133150  76.4011973  92.9448145
  89.0552323  77.5872022  93.8749406  85.8332980  74.2033334  88.8464328
  86.7625040  74.3544493  88.6733295  85.4124010  74.2917354  87.9912974
  84.6321312  78.2283998  86.6162865  84.4932398  77.8602782  87.4888803
  83.8435908  78.7431637  86.4446823  85.2269464  83.3293095  77.9588402
  85.4021220  82.8581138  78.7734024  84.5402252  83.9558861  78.1869662
  86.1826527  77.6065601  84.0051703  85.8476360  77.5666371  84.9009353
  85.6830473  76.9410317  83.5322113  80.1570771  73.0133231  89.5304284
  80.0190569  72.2813470  90.1315823  81.0675694  72.9242131  89.2488472
  89.1185719  74.9521635  74.2788763  88.5014889  74.2268463  74.1821815
  88.6502207  75.7130995  73.9355837  82.7853072  72.7253190  89.0187964
  83.4952690  72.0846382  88.9774582  82.7422380  72.9766085  89.9414145
  90.7739850  79.6620543  91.9394543  90.7152396  78.9779764  91.2725126
  91.1759369  80.4039533  91.4875169  81.4982006  69.7118408  90.8383603
  80.9619363  69.2609146  91.4905200  80.9098714  69.8464317  90.0954068
  79.7930549  86.4782457  84.7328262  80.0327147  87.1100981  85.4107280
  78.9499746  86.1270497  85.0193621  90.7757258  77.6260127  90.1708523
  89.8884036  77.2886049  90.2934922  91.3455809  76.8943159  90.4077288
  77.2321127  68.8474416  87.9236598  77.1479316  68.2400085  87.1887008
  76.4103833  69.3383434  87.9246094  84.3058411  82.2861580  87.1369766
  84.2328582  83.0916551  87.6489070  83.8635804  82.4853546  86.3117787
  84.0948191  81.5233350  80.6472587  83.3115712  82.0655030  80.7410812
  84.7940936  82.0407329  81.0466829  87.4044841  67.3327979  83.2906793
  87.9013540  66.5797942  82.9707863  86.6331822  67.3692296  82.7250002
  95.2574598  73.0368345  84.9325084  95.2464474  73.9193060  84.5619017
  94.3891978  72.6839896  84.7379621  86.7657094  82.1848414  89.2927924
  87.4785067  82.8195879  89.2203826  86.2747123  82.2812280  88.4767926
  88.4874621  76.0899666  80.8645216  87.5530900  76.2101129  80.6949920
  88.6651290  75.1872133  80.6005226  83.9879809  69.4745362  83.0178477
  83.6177597  68.9216403  83.7059383  84.4838902  68.8703496  82.4653477
  91.8747173  71.9316986  81.3995250  92.3407625  72.7644977  81.3255553
  92.3254673  71.4661967  82.1040509  81.8169008  79.9342857  90.1133495
  82.5178468  80.5679340  90.2662890  81.3464123  80.2757589  89.3529135
  89.9423404  78.2760807  78.3981402  90.2183248  78.1617402  79.3075276
  89.0727903  77.8778292  78.3593575  89.8463835  64.2997573  85.4386152
  88.9326915  64.5301800  85.6068359  90.2756937  64.3836017  86.2900184
  89.6170294  72.4887465  87.9386046  88.9641744  72.7363372  87.2838498
  89.9950674  71.6751603  87.6048523  86.5777468  82.5247158  82.0414216
  86.7599862  81.7068814  82.5041968  87.4010454  82.7414850  81.6039106
  86.9119633  81.4515343  79.3029264  87.4407400  80.9407798  78.6899427
  87.1747853  81.1357873  80.1674797  85.6657867  73.2307276  94.4252083
  84.9898504  73.1301405  95.0954458  86.4885501  73.0746489  94.8888080
  77.4136726  79.4679212  87.0464598  77.9990163  78.7222900  87.1792502
  77.2161565  79.7783169  87.9301262  80.2675381  82.5030460  82.0627040
  79.5985757  82.9876587  81.5791080  80.1288251  82.7499680  82.9770419
  84.4080650  84.5374203  88.6609699  84.9598958  84.7005825  89.4258784
  84.7486843  85.1278641  87.9889724  79.3845143  66.8849353  89.2631583
  79.4486470  67.7464184  88.8508981  79.3212263  66.2723355  88.5303942
  78.8597416  68.9572486  92.9104618  79.4869454  68.5749563  93.5242142
  78.0025335  68.7386687  93.2760310  89.2591524  79.3635461  94.5158353
  89.8031428  79.9765419  94.0213308  88.6778369  79.9215039  95.0325366
  87.5449037  82.4856179  85.6473381  87.4200177  81.6845919  85.1384326
  88.2028128  82.9802372  85.1587351  79.1657205  68.8404911  84.8250521
  78.4443791  69.4540879  84.6857994  79.9550461  69.3762676  84.7467167
  89.6083946  80.2865199  87.2752931  88.6614281  80.1670550  87.2031258
  89.9566719  79.3987697  87.3579192  81.9683519  66.1759338  91.0991173
  82.4917921  66.4221634  91.8617482  81.7495852  67.0079373  90.6794310
  86.6130379  80.0817915  83.4757283  86.4655341  79.1534622  83.6564853
  87.4383872  80.1038006  82.9914358  90.2164501  80.9046474  84.5622156
  91.1411048  80.6989335  84.4246607  90.0479804  80.6562875  85.4711497
  83.1736064  67.1173033  88.7840843  82.8332884  66.3180846  89.1861523
  82.4675070  67.4174744  88.2117677  83.8252536  64.2022345  87.2368166
  84.6478605  63.7282823  87.1147057  84.0690599  64.9812829  87.7366853
  82.4660770  67.2310604  77.5331068  83.1869133  67.6091856  77.0294785
  81.8426074  67.9499480  77.6366046  86.6091893  67.9355753  78.4689400
  86.8255508  68.8180391  78.1678229  86.1285960  67.5441966  77.7395042
  81.3491115  70.8941466  85.0460145  81.2035695  71.2081769  85.9384427
  80.8716318  71.5126366  84.4931044  83.2087497  67.8844014  85.0941035
  83.1949066  66.9885107  84.7573333  83.9259926  67.8914678  85.7279321
  85.0613628  68.3181354  87.1394162  84.8031406  69.2398425  87.1378492
  84.5298669  67.9211789  87.8294626  90.0059817  81.4232141  79.9184247
  90.1796694  80.8578564  79.1658100  90.4988708  82.2233036  79.7363737
  75.8236777  73.4346810  87.9847806  75.2790245  74.2106618  88.1168081
  76.7016127  73.7817615  87.8266928  82.6124393  66.7658394  80.3628605
  82.7340305  65.8375040  80.5619492  82.3226436  66.7797080  79.4506920
  85.4815584  64.4513305  83.4995325  85.5037281  64.5152638  82.5447304
  85.8983643  63.6117813  83.6935831  95.8599208  74.1868564  81.5374547
  96.3030354  73.4375889  81.1393670  94.9825718  74.1778700  81.1548279
  90.9934989  80.7398906  77.0181146  91.6885894  81.3605598  77.2368460
  91.3358140  79.8894257  77.2933524  76.6102799  72.5616707  90.8777963
  75.8684535  72.7099342  91.4642594  76.2895543  72.8224972  90.0144713
  92.8926413  78.1898611  78.5468476  93.4177737  78.5285884  77.8217796
  92.8048765  77.2545626  78.3631611  84.5546461  82.1032685  90.6758353
  84.8633588  81.8581832  91.5481053  85.3521943  82.3079323  90.1877223
  84.5767073  84.2570594  82.9063730  84.1372064  83.7646973  83.5996586
  85.3275190  83.7143562  82.6655805  77.0559412  80.4482135  82.9088358
  77.8817432  80.1485907  82.5287001  76.7053464  79.6789758  83.3578146
  82.0240945  79.8008603  84.9786031  81.4020955  79.1379309  84.6788259
  82.6945812  79.8269735  84.2959679  82.0965473  68.2790392  94.5718537
  82.1453628  69.1552514  94.1896307  82.6387987  67.7367785  93.9990181
  92.5820319  78.8231515  93.8519674  91.7915862  78.8055654  93.3124174
  92.3453673  79.3619808  94.6068711  92.7018194  75.6723981  91.1652403
  92.7516199  75.5073989  92.1067926  92.5932117  74.8051240  90.7750284
  81.5854452  78.3512527  78.4544492  81.7342573  79.0347991  77.8011165
  82.3920896  78.3317617  78.9693948  89.9921956  71.6554909  92.4811710
  90.8931819  71.5161374  92.1895707  90.0669931  71.8209364  93.4209887
  84.3264761  69.0321764  91.3264896  83.4568071  69.3255330  91.0547485
  84.5624242  69.6162209  92.0472160  94.2036390  78.0920923  91.4094425
  93.9121199  78.4550903  92.2457885  93.5908522  77.3787931  91.2307757
  95.4032073  75.6573802  83.9296995  96.2378964  76.0963606  84.0934555
  95.5391202  75.1812456  83.1105241  92.4523579  73.2153537  89.8774482
  92.9277700  73.4081184  89.0693334  91.5289144  73.2712723  89.6317866
  87.0303795  65.2501381  88.8430316  87.5485739  65.9862408  88.5176805
  86.6758928  65.5565374  89.6777076  87.2816389  61.6701663  84.3631213
  87.5618143  61.0024852  84.9891640  88.0666996  61.8630759  83.8505877
  85.0849858  80.8460657  75.9256239  84.5123825  81.4650844  75.4726711
  85.6582652  81.3960019  76.4596161  91.1525248  70.0919297  88.1102788
  92.1042671  70.1917395  88.1315012  90.9828698  69.2997566  88.6200872
  89.1739627  67.1774881  88.2962189  88.5789559  67.4579893  87.6008678
  88.8889324  67.6668782  89.0678930  88.3047118  81.1297807  77.0564822
  89.2377791  81.0643369  77.2597697  88.2170330  81.9654074  76.5979354
  90.9335134  80.4463678  74.0168769  90.8548766  80.1123541  74.9104527
  91.7544801  80.9385446  74.0160241  93.6313325  73.3125417  87.2245088
  93.5989646  72.3741418  87.4104772  94.2413949  73.3909454  86.4910913
  85.4696656  72.1821470  73.2672292  86.4155761  72.0527678  73.3360710
  85.0910901  71.4436132  73.7441720  93.7807814  70.1036460  87.2703371
  93.2646863  69.3194917  87.0833300  94.6647762  69.7755177  87.4349890
  91.4418541  63.8477476  83.2299184  91.2443362  63.5392564  84.1142516
  92.0518246  64.5739115  83.3597113  99.4489875  74.3741424  86.3651125
 100.1793264  74.1126712  86.9258828  98.8396821  73.6370146  86.4053193
  97.5305172  72.5149286  86.9625576  96.8038336  72.3805251  86.3542067
  97.1152459  72.8226115  87.7682294  85.3535349  76.2339216  94.7272949
  86.2738358  76.4117815  94.9212995  85.3184932  75.2895262  94.5752648
  83.6539574  70.1071446  73.2027177  82.7471029  69.8104559  73.2789891
  83.9315555  69.8101265  72.3361463  78.3497421  74.1440251  87.3695730
  78.5683431  75.0757359  87.3883764  78.7623195  73.7848225  88.1550534
  85.2701639  64.6508336  79.3571418  84.4602368  64.3055421  79.7326664
  85.9586056  64.3415880  79.9459030  87.1992188  63.7286383  80.9795715
  87.7523226  64.1481836  81.6385738  87.4362274  62.8022131  81.0218671
  83.2225287  69.7173457  96.7598479  83.1222014  70.6667814  96.6910570
  83.0046829  69.3891695  95.8874549  82.4238358  66.9658382  73.3439156
  83.2857522  67.2913280  73.6034974  82.6088702  66.1789878  72.8312222
  90.5770995  65.8386908  80.4874379  89.9969664  66.4971712  80.1052432
  90.3106927  65.0164253  80.0761797  89.0274561  65.2391966  82.6895700
  89.5274339  65.3508500  81.8810018  89.6710169  64.9353019  83.3296508
  83.0856557  73.1470595  95.5763541  82.6023639  73.9470956  95.7827430
  83.1717496  73.1578540  94.6230985  79.0129894  77.0375130  87.6131974
  79.9673148  77.0059072  87.5461906  78.8142418  76.5765754  88.4282200
  79.6029276  75.6076246  90.1802772  80.4222165  76.1020325  90.2037609
  79.8766084  74.6908214  90.1520339  89.3595873  67.9986998  79.5430727
  88.4721728  68.2836649  79.3250922  89.7749862  67.8380762  78.6958004
  92.7110409  68.0233519  83.2585067  93.4870799  68.5129972  83.5309684
  91.9858543  68.4491574  83.7156936  95.1482967  68.7361139  84.3159007
  95.7427458  68.4956875  83.6052316  95.2209551  68.0168269  84.9432544
  77.3680123  82.5794750  84.6302172  77.2334591  81.8195151  84.0640170
  76.9512185  83.3035649  84.1630961  88.5039086  77.7631673  73.6378747
  89.2074936  77.9681676  74.2536403  87.7801735  78.3308435  73.9027831
  89.3336896  73.5141534  79.7581018  89.2772098  73.9710086  78.9188650
  89.8865239  72.7532219  79.5803860  93.1441702  69.3031266  80.5831137
  92.8878637  68.9027902  81.4139345  92.5194570  70.0175060  80.4581276
  97.4554040  72.0427340  83.0902429  96.8953598  72.1120529  83.8633991
  96.8497543  71.8668324  82.3701925  80.5249249  83.4764067  84.8420615
  80.4081633  84.4209499  84.7399305  79.7041695  83.1737628  85.2306414
  90.4125783  78.2014202  75.6877208  91.2471387  77.7695401  75.5054682
  90.2510126  78.0296216  76.6154102  90.0671676  74.7046316  77.0533547
  90.0120479  74.5390587  76.1121991  89.4417731  75.4122349  77.2095737
  74.8564191  69.9414380  90.8794969  75.5023054  69.4313334  91.3682194
  74.6481342  70.6783062  91.4538394  87.3817583  77.0095228  96.3787110
  88.2508742  77.1835880  96.0173745  86.9024334  77.8289644  96.2562839
  83.3767801  64.2054425  76.6318865  83.3646471  65.1496265  76.7887136
  84.2691223  64.0224570  76.3378326  81.5503763  84.1292329  88.0576543
  82.4531010  84.1615939  88.3743038  81.3241133  83.1992779  88.0722879
  83.3057365  82.8823315  84.7186622  82.3552996  82.8825177  84.6050994
  83.6089851  82.1356050  84.2022656  87.1919921  60.7997201  80.8864802
  86.4252316  60.2455688  81.0321484  87.6030626  60.8719070  81.7478954
  79.1961682  67.0881997  94.9769983  80.0593143  66.7318802  95.1873308
  78.6227092  66.7495892  95.6645388  99.0410059  88.7183853  85.7832384
  99.6788469  88.5990601  85.0795724  98.9230901  89.6664697  85.8420336
  95.8499765  88.6711282  85.7193909  95.5118276  88.5552346  84.8314444
  96.7189533  88.2702447  85.6994915  91.7086581  90.5246758  81.7090800
  91.1451446  90.4336695  80.9407088  91.5938976  89.7046662  82.1893292
  96.3319548  89.8246133  91.6780114  96.3208189  89.4298932  90.8060618
  96.4940187  89.0912206  92.2713886  89.2551012  92.0197950  84.5475020
  90.0472304  91.6788774  84.1321320  89.4947663  92.1292925  85.4677174
  97.2886139  94.1917726  77.0205265  96.6374119  94.7771806  76.6339279
  98.0830502  94.7223921  77.0800302  91.2141766  91.2806863  77.4192399
  91.9872642  90.7335850  77.2805275  91.5667165  92.1451112  77.6306861
  93.0526809  92.6083245  90.6259298  92.7616675  93.5128876  90.5105965
  93.6883793  92.6499773  91.3403368  93.9783016  89.9860094  87.2160658
  94.5746588  89.7616116  86.5017621  94.0357987  89.2444839  87.8186106
  93.5508044  87.4399529  75.0510849  93.8033565  86.9181050  74.2894312
  92.6132603  87.2765674  75.1537533  98.5951327  86.4435307  82.8585592
  99.3814416  86.0254730  82.5076009  98.8590031  87.3481399  83.0267241
  98.7661404  91.8808158  77.5574249  98.1307237  91.9542784  78.2695154
  98.4358811  92.4701756  76.8793328 103.9959754  86.3810541  83.7618571
 104.7284926  85.8109757  83.9956400 103.2399110  85.9932141  84.2025076
  93.2704333  89.3427635  77.2535224  93.1540591  88.6672538  77.9216308
  93.3806593  88.8560009  76.4367377  95.6135874  88.8037782  80.9581913
  95.2494081  88.2768403  81.6694835  96.4702990  88.4136251  80.7848399
 101.5185175  80.0932115  88.2213179 101.1868499  80.9627526  87.9974394
 100.9230788  79.7768399  88.9007210  95.2541361  83.8327682  75.9543262
  95.4215763  84.7007918  76.3213733  95.0638530  83.9954963  75.0304551
  98.0116694  92.2944661  87.6209092  97.7117417  93.1969699  87.5124899
  97.6667754  92.0276844  88.4730245  91.4629176  88.7458457  83.6545797
  90.5379672  88.6134672  83.8623488  91.7113589  89.5252677  84.1515739
 101.4113838  84.8127201  85.3006529 100.5030715  84.7442609  85.0065290
 101.3601434  85.2899146  86.1288355  95.2330582  86.2885339  76.9389929
  95.1130207  86.7342390  77.7775409  94.5383170  86.6370657  76.3803467
  88.8237987  88.3891731  84.4889586  88.9530368  88.6426210  85.4028997
  88.1435438  88.9819439  84.1694241  92.9937474  99.0588981  80.5880060
  92.9161504 100.0096806  80.6668540  92.3899117  98.7134853  81.2454986
  95.4854704  86.2316846  93.2441427  94.7088038  86.7910767  93.2344291
  96.1245267  86.7173629  93.7656297 103.2775484  83.0143639  87.0784403
 102.6349865  83.3076172  86.4324198 102.7730413  82.8996560  87.8837600
 100.9315648  86.7606812  77.7670263 101.8433504  86.9934199  77.5917960
 100.4225295  87.3443857  77.2045341  93.7401076  89.0402300  92.8059394
  94.4815760  89.5787344  92.5294217  93.0338061  89.6668588  92.9630946
  99.2156416  91.1831440  91.4031555  99.6239772  90.7413851  90.6586188
  98.4933677  90.6084068  91.6565748  95.5687486  86.1204047  88.7765112
  96.4148681  86.5443461  88.9199761  95.5086123  85.4637671  89.4703675
  99.5385230  91.7432631  85.1583844  98.9094093  91.9078345  84.4559912
  99.1510892  92.1574240  85.9294808 103.4174462  92.6787069  82.5128208
 102.7325500  93.0585970  81.9625241 103.5018311  93.2882395  83.2460156
  98.7186931  83.7808415  90.4346286  98.4747863  84.5350476  89.8980562
  98.9946861  84.1593763  91.2693533 100.6725394  90.3247028  89.1123551
 100.8842289  90.9678788  88.4357932 100.6255142  89.4909344  88.6445481
  98.2751623  82.9364848  86.0160124  97.4136102  83.2346102  86.3076861
  98.3014057  83.1535247  85.0841156  95.0913192  91.4807039  82.4233929
  95.5551538  91.7594742  81.6338552  94.8269990  90.5790484  82.2407020
  91.9837273  91.0278520  85.3613692  92.5538630  91.4565789  84.7231177
  92.5745385  90.7461105  86.0597878  94.0282078  87.6030191  79.2323494
  94.7306122  88.0551235  79.6997421  93.6962707  86.9614010  79.8603387
  92.4762440  86.1941948  93.6074704  91.8461100  86.8758229  93.8410101
  92.3698528  86.0825030  92.6627842  87.7707412  85.8613744  84.5340628
  86.9806466  86.1171272  84.0580739  88.2618660  86.6762082  84.6392668
 101.7871222  93.2018983  87.2845909 102.6088665  92.7999170  87.0028590
 101.7833625  93.0987217  88.2362025  89.7222158  86.2258323  81.4924105
  88.9253321  86.3377017  82.0107600  89.4947750  86.5644975  80.6264995
  95.5527825  92.7503026  89.4406619  95.6172258  93.2123434  90.2764791
  94.8438749  92.1200391  89.5688929  86.0545115  86.1144234  86.9655619
  86.3053154  86.9991244  87.2313195  86.5904664  85.9348836  86.1930711
 109.8777215  89.5457732  83.6330880 109.1240923  88.9765130  83.4774885
 110.0124756  89.5120396  84.5801515  95.2675843  94.4171134  79.3085600
  95.1321518  95.2622670  79.7370447  95.8085655  94.6190412  78.5451533
  91.7543182  80.4962714  95.9699955  91.3610128  79.9428912  96.6447599
  92.5709323  80.8073292  96.3606472  88.7205240  91.9346572  79.8813525
  89.2329761  92.7289822  80.0319089  89.3727953  91.2372862  79.8147126
  90.5300125  95.0512328  81.9636278  90.7066753  95.9730293  81.7757262
  91.3256958  94.7370747  82.3930658  94.6711143  81.9120593  93.5620211
  95.4120857  82.5127746  93.4824674  94.9029066  81.1698231  93.0038254
  89.8152481  87.0976960  91.8398441  89.7005997  86.1962217  92.1405540
  88.9596999  87.3440657  91.4883258  91.6531440  96.5690502  87.9646620
  92.2038865  96.4407565  87.1923614  90.8142916  96.8685391  87.6141513
  95.4498611  92.8341630  92.3090851  95.9826948  92.0729918  92.0790159
  94.9212692  92.5415282  93.0515006  98.6168306  77.9401696  87.8384493
  98.2732576  78.8303337  87.7623604  98.9847269  77.7503353  86.9754078
  86.6854157  90.2635226  80.6573095  87.5229379  90.6732235  80.4406803
  86.8632425  89.3234668  80.6273289  98.5818589  87.9310307  76.3456928
  98.0665213  88.7014912  76.5845316  98.3095898  87.2575443  76.9689990
  96.1665700  82.7760008  81.4042167  95.3107296  82.3866858  81.2247805
  96.5792652  82.8551968  80.5441952  97.6964847  80.3106351  85.8033726
  97.1929642  80.2736486  84.9901532  97.9895454  81.2199094  85.8630383
  93.9407733  80.3945081  84.8099908  94.8060729  80.1987889  84.4505797
  94.0085242  80.1655432  85.7369265 103.5552863  90.6842662  78.2810102
 102.7782306  90.3453821  77.8365264 104.2344344  90.6895285  77.6065067
  98.3704892  85.8037399  78.1716709  98.0655028  86.1183548  79.0226853
  99.3235334  85.8818819  78.2144042  96.8151324  91.9627622  79.8209663
  96.2872686  91.2280382  79.5082901  96.3138827  92.7402299  79.5749632
 101.7944170  90.1576643  84.9376710 101.1367845  90.8475904  85.0256838
 102.5984569  90.5473075  85.2810696  91.5470052  82.6247289  82.1816275
  92.1213804  82.4022470  81.4489468  92.1341034  82.6935983  82.9344876
 100.6049629  88.5121015  82.9880651 101.1181511  89.1451007  83.4902361
 101.2550853  87.9122211  82.6224011  91.8739639  84.6551750  76.2012160
  91.0376951  84.9926436  76.5221435  91.7344408  84.5200729  75.2639297
  93.8492719  79.4988537  80.9091344  93.1957132  79.1837555  80.2847959
  93.8073194  78.8764278  81.6351167  94.9603924  89.7807833  72.8244636
  94.0530986  89.5497086  73.0235785  95.4574956  88.9845452  73.0118618
  97.8672003  98.4905340  75.7441323  97.1933702  98.7937037  76.3526280
  98.2537825  99.2934420  75.3946780  97.0830460  85.9870471  85.2338992
  96.1653021  86.2085418  85.0760680  97.4990603  86.0616782  84.3750699
  97.8665508  87.3861887  80.3641672  98.6137326  87.8983284  80.0548794
  98.1357097  87.0645939  81.2246066  96.1392158  89.8820427  77.3468626
  95.2303377  89.5979460  77.4441096  96.1687242  90.3019506  76.4871933
 101.3711425  93.4927017  81.1159794 100.9173752  92.6517927  81.1724984
 100.7405392  94.1288415  81.4534574 100.3144345  84.4219003  82.3460461
  99.5767101  83.9096389  82.6770704 100.5671118  83.9819385  81.5343738
  99.8144364  95.3303514  82.0509612 100.1067339  95.8908571  81.3321978
 100.3242985  95.6232075  82.8062771 100.4155972  77.1995255  82.9402231
 100.7214849  76.3392618  82.6528146 101.1408577  77.7912875  82.7401225
  86.7080328  87.6025942  81.3283829  86.5104728  87.0095302  80.6034895
  86.1526992  87.2978152  82.0459767  94.6877052  87.4949048  83.4478422
  94.7425662  86.5422884  83.3720898  93.8768254  87.6508487  83.9319720
  95.8368246  91.4229171  74.6856705  95.3987675  90.7065030  74.2262342
  96.5778686  91.6505286  74.1241796  92.6269412  86.1126108  81.2068801
  91.8137277  86.4120278  81.6133993  93.1228406  85.7181797  81.9243283
  94.7777990  96.1083865  83.1403065  94.7354168  96.3344711  82.2111597
  95.6940688  95.8747239  83.2888866  98.2243623  86.5767932  90.0383695
  98.5793011  86.8039405  90.8978160  98.8715755  86.9086309  89.4160950
 103.9541360  89.6986368  80.7433024 103.8159259  89.8887964  79.8154213
 103.5977579  90.4605751  81.2001075  92.1183486  83.6844463  86.8230036
  92.7582866  83.5433222  86.1252999  91.2861017  83.3978977  86.4468638
 103.9810740  91.7662895  85.7544295 104.4147247  91.6738184  86.6027349
 104.6942321  91.7420396  85.1164311  92.8943790  92.9846894  82.9365028
  93.6884389  92.4897214  82.7347603  92.1835483  92.4564757  82.5732734
  97.7138635  95.3664989  87.2877396  97.7675657  95.9355926  88.0555112
  96.8453416  95.5366874  86.9231433  89.2026554  87.1289975  79.0124781
  88.2724142  87.0674431  79.2294743  89.2984026  86.6065928  78.2161422
  89.1212103  83.6544788  81.6003022  89.3818920  84.5690122  81.4912183
  89.9429275  83.1869231  81.7499635  90.5937028  85.0682545  88.7701847
  91.2660082  84.8599908  88.1214496  89.7666815  84.8704631  88.3307079
 104.8426289  91.8086596  88.2877180 105.0362180  92.7132406  88.5336455
 104.7426908  91.3494015  89.1215766  96.4962600  81.6944486  90.7867508
  95.8490515  82.3934436  90.6931984  97.2663616  82.1280630  91.1543756
  96.6726735  89.5325251  88.8464328  97.6018795  89.6836411  88.6733295
  96.2517765  89.6209272  87.9912974  95.4715066  93.5575916  86.6162865
  95.3326152  93.1894700  87.4888803  94.6829663  94.0723555  86.4446823
  96.0663218  98.6585012  77.9588402  96.2414974  98.1873055  78.7734024
  95.3796006  99.2850778  78.1869662  97.0220281  92.9357518  84.0051703
  96.6870114  92.8958288  84.9009353  96.5224227  92.2702234  83.5322113
  90.9964525  88.3425148  89.5304284  90.8584323  87.6105387  90.1315823
  91.9069449  88.2534049  89.2488472  99.9579473  90.2813553  74.2788763
  99.3408644  89.5560381  74.1821815  99.4895962  91.0422913  73.9355837
  93.6246826  88.0545108  89.0187964  94.3346445  87.4138300  88.9774582
  93.5816134  88.3058003  89.9414145  92.3375760  85.0410326  90.8383603
  91.8013117  84.5901064  91.4905200  91.7492469  85.1756234  90.0954068
  90.6324304 101.8074375  84.7328262  90.8720902 102.4392899  85.4107280
  89.7893500 101.4562415  85.0193621  91.7478019  84.4998977  73.4010067
  90.8707485  84.3787778  73.0372314  92.2235772  83.7085055  73.1488956
 101.6151012  92.9552045  90.1708523 100.7277791  92.6177967  90.2934922
 102.1849563  92.2235076  90.4077288  83.2680159  89.2876137  83.4951574
  83.9551199  88.9737867  82.9072589  83.1128288  90.1917501  83.2218825
  88.0714881  84.1766333  87.9236598  87.9873070  83.5692003  87.1887008
  87.2497588  84.6675352  87.9246094  95.1452165  97.6153497  87.1369766
  95.0722337  98.4208469  87.6489070  94.7029559  97.8145463  86.3117787
  94.9341945  96.8525267  80.6472587  94.1509467  97.3946948  80.7410812
  95.6334690  97.3699247  81.0466829  98.2438595  82.6619897  83.2906793
  98.7407295  81.9089859  82.9707863  97.4725577  82.6984214  82.7250002
 106.0968353  88.3660262  84.9325084 106.0858229  89.2484978  84.5619017
 105.2285732  88.0131813  84.7379621  99.3268376  91.4191584  80.8645216
  98.3924655  91.5393047  80.6949920  99.5045044  90.5164051  80.6005226
  94.8273564  84.8037280  83.0178477  94.4571351  84.2508320  83.7059383
  95.3232656  84.1995413  82.4653477 102.7140927  87.2608903  81.3995250
 103.1801379  88.0936895  81.3255553 103.1648428  86.7953885  82.1040509
  92.6562763  95.2634775  90.1133495  93.3572222  95.8971258  90.2662890
  92.1857878  95.6049506  89.3529135 100.7817158  93.6052725  78.3981402
 101.0577002  93.4909319  79.3075276  99.9121657  93.2070210  78.3593575
 100.6857590  79.6289490  85.4386152  99.7720670  79.8593717  85.6068359
 101.1150691  79.7127934  86.2900184 100.4564048  87.8179382  87.9386046
  99.8035499  88.0655290  87.2838498 100.8344428  87.0043521  87.6048523
  97.4171222  97.8539076  82.0414216  97.5993617  97.0360731  82.5041968
  98.2404208  98.0706768  81.6039106  97.7513388  96.7807261  79.3029264
  98.2801154  96.2699715  78.6899427  98.0141607  96.4649791  80.1674797
  96.5051621  88.5599193  94.4252083  95.8292259  88.4593323  95.0954458
  97.3279255  88.4038407  94.8888080  88.2530481  94.7971130  87.0464598
  88.8383917  94.0514818  87.1792502  88.0555319  95.1075087  87.9301262
  91.1069136  97.8322377  82.0627040  90.4379511  98.3168505  81.5791080
  90.9682005  98.0791598  82.9770419  82.8448135  87.3676730  85.7669041
  82.8832235  86.8340321  86.5606159  82.3388428  86.8411936  85.1480018
  90.2238898  82.2141271  89.2631583  90.2880224  83.0756102  88.8508981
  90.1606018  81.6015272  88.5303942  89.6991170  84.2864403  92.9104618
  90.3263209  83.9041481  93.5242142  88.8419089  84.0678605  93.2760310
  86.4756713  86.0940832  78.8422973  86.7710154  85.1851511  78.7890026
  85.5744749  86.0728572  78.5203975  98.3842792  97.8148096  85.6473381
  98.2593931  97.0137836  85.1384326  99.0421883  98.3094290  85.1587351
  90.0050960  84.1696829  84.8250521  89.2837546  84.7832797  84.6857994
  90.7944216  84.7054594  84.7467167 100.4477700  95.6157116  87.2752931
  99.5008036  95.4962468  87.2031258 100.7960473  94.7279615  87.3579192
  92.8077273  81.5051255  91.0991173  93.3311675  81.7513552  91.8617482
  92.5889607  82.3371290  90.6794310  88.2044554  83.7754930  78.9662298
  87.8757261  82.8952309  78.7837404  88.5583925  83.7202599  79.8538687
  97.4524133  95.4109833  83.4757283  97.3049096  94.4826540  83.6564853
  98.2777627  95.4329923  82.9914358  91.3186378  84.0627900  79.3337775
  91.6582450  84.5913821  78.6116384  91.7658498  84.4008306  80.1096342
 101.0558255  96.2338391  84.5622156 101.9804803  96.0281253  84.4246607
 100.8873559  95.9854793  85.4711497  94.0129818  82.4464950  88.7840843
  93.6726639  81.6472764  89.1861523  93.3068825  82.7466661  88.2117677
  94.6646290  79.5314263  87.2368166  95.4872360  79.0574741  87.1147057
  94.9084354  80.3104747  87.7366853  93.3054525  82.5602521  77.5331068
  94.0262887  82.9383774  77.0294785  92.6819829  83.2791398  77.6366046
  97.4485648  83.2647670  78.4689400  97.6649262  84.1472308  78.1678229
  96.9679715  82.8733884  77.7395042  92.1884869  86.2233384  85.0460145
  92.0429450  86.5373687  85.9384427  91.7110073  86.8418284  84.4931044
  94.0481252  83.2135932  85.0941035  94.0342821  82.3177025  84.7573333
  94.7653680  83.2206595  85.7279321  95.9007383  83.6473272  87.1394162
  95.6425160  84.5690342  87.1378492  95.3692423  83.2503706  87.8294626
 100.8453571  96.7524059  79.9184247 101.0190449  96.1870481  79.1658100
 101.3382463  97.5524954  79.7363737  86.6630531  88.7638728  87.9847806
  86.1183999  89.5398536  88.1168081  87.5409881  89.1109532  87.8266928
  93.4518148  82.0950312  80.3628605  93.5734059  81.1666958  80.5619492
  93.1620190  82.1088998  79.4506920  96.3209338  79.7805222  83.4995325
  96.3431035  79.8444555  82.5447304  96.7377397  78.9409731  83.6935831
 106.6992963  89.5160482  81.5374547 107.1424109  88.7667807  81.1393670
 105.8219473  89.5070618  81.1548279 101.8328744  96.0690823  77.0181146
 102.5279649  96.6897516  77.2368460 102.1751894  95.2186174  77.2933524
  87.4496553  87.8908624  90.8777963  86.7078289  88.0391260  91.4642594
  87.1289297  88.1516890  90.0144713 103.7320167  93.5190529  78.5468476
 104.2571491  93.8577802  77.8217796 103.6442520  92.5837544  78.3631611
  95.4160828  99.5862512  82.9063730  94.9765818  99.0938891  83.5996586
  96.1668945  99.0435480  82.6655805  87.8953167  95.7774053  82.9088358
  88.7211187  95.4777825  82.5287001  87.5447219  95.0081675  83.3578146
  92.8634700  95.1300521  84.9786031  92.2414709  94.4671226  84.6788259
  93.5339567  95.1561653  84.2959679  86.0961772  93.6960379  83.8677291
  85.2593680  93.2682554  83.6861293  86.0685417  93.8892823  84.8048083
  92.9359227  83.6082309  94.5718537  92.9847383  84.4844432  94.1896307
  93.4781742  83.0659702  93.9990181  92.4248207  93.6804445  78.4544492
  92.5736327  94.3639909  77.8011165  93.2314650  93.6609535  78.9693948
 100.8315711  86.9846827  92.4811710 101.7325573  86.8453292  92.1895707
 100.9063685  87.1501282  93.4209887  95.1658516  84.3613682  91.3264896
  94.2961825  84.6547248  91.0547485  95.4017996  84.9454127  92.0472160
 106.2425827  90.9865720  83.9296995 107.0772719  91.4255524  84.0934555
 106.3784956  90.5104373  83.1105241 103.2917333  88.5445455  89.8774482
 103.7671455  88.7373101  89.0693334 102.3682899  88.6004641  89.6317866
  90.1800840  89.7069622  79.4605561  89.9346882  88.8031952  79.6585771
  90.3496754  89.7086773  78.5185039  97.8697550  80.5793299  88.8430316
  98.3879494  81.3154325  88.5176805  97.5152682  80.8857292  89.6777076
  89.4496487  85.4397980  76.9591722  88.7565732  85.5142335  76.3031758
  89.2048239  84.6758323  77.4813239  98.1210144  76.9993581  84.3631213
  98.4011898  76.3316770  84.9891640  98.9060751  77.1922677  83.8505877
  95.9243612  96.1752575  75.9256239  95.3517579  96.7942762  75.4726711
  96.4976406  96.7251937  76.4596161 101.9919002  85.4211215  88.1102788
 102.9436425  85.5209313  88.1315012 101.8222453  84.6289484  88.6200872
 100.0133382  82.5066798  88.2962189  99.4183314  82.7871811  87.6008678
  99.7283078  82.9960699  89.0678930  99.1440872  96.4589725  77.0564822
 100.0771545  96.3935287  77.2597697  99.0564085  97.2945992  76.5979354
 101.7728889  95.7755595  74.0168769 101.6942520  95.4415459  74.9104527
 102.5938556  96.2677363  74.0160241 104.4707080  88.6417335  87.2245088
 104.4383400  87.7033335  87.4104772 105.0807704  88.7201371  86.4910913
  96.3090411  87.5113388  73.2672292  97.2549516  87.3819596  73.3360710
  95.9304656  86.7728050  73.7441720 104.6201568  85.4328378  87.2703371
 104.1040617  84.6486835  87.0833300 105.5041517  85.1047095  87.4349890
 102.2812295  79.1769394  83.2299184 102.0837117  78.8684482  84.1142516
 102.8912001  79.9031033  83.3597113 110.2883630  89.7033342  86.3651125
 111.0187018  89.4418630  86.9258828 109.6790575  88.9662064  86.4053193
 108.3698927  87.8441204  86.9625576 107.6432091  87.7097169  86.3542067
 107.9546214  88.1518033  87.7682294  94.4933328  85.4363364  73.2027177
  93.5864783  85.1396477  73.2789891  94.7709309  85.1393182  72.3361463
  85.4111268  86.7569728  83.6526223  85.0914053  85.9035036  83.3600597
  84.8644697  86.9718306  84.4084191  89.1891176  89.4732169  87.3695730
  89.4077186  90.4049276  87.3883764  89.6016950  89.1140143  88.1550534
  96.1095394  79.9800254  79.3571418  95.2996122  79.6347339  79.7326664
  96.7979811  79.6707798  79.9459030  98.0385942  79.0578301  80.9795715
  98.5916981  79.4773754  81.6385738  98.2756028  78.1314049  81.0218671
  94.0619041  85.0465374  96.7598479  93.9615768  85.9959731  96.6910570
  93.8440583  84.7183613  95.8874549  93.2632113  82.2950299  73.3439156
  94.1251277  82.6205198  73.6034974  93.4482457  81.5081795  72.8312222
  85.2799528  90.3772639  85.6219345  84.5863000  89.9626592  85.1089299
  86.0272519  90.4193176  85.0252764 101.4164749  81.1678826  80.4874379
 100.8363418  81.8263630  80.1052432 101.1500682  80.3456170  80.0761797
  99.8668315  80.5683883  82.6895700 100.3668094  80.6800418  81.8810018
 100.5103923  80.2644936  83.3296508  93.9250311  88.4762513  95.5763541
  93.4417393  89.2762873  95.7827430  94.0111250  88.4870458  94.6230985
  87.1936271  90.3090893  83.4985360  87.1706959  90.4078580  82.5467243
  87.5036907  91.1556044  83.8202526  89.8523649  92.3667048  87.6131974
  90.8066902  92.3350990  87.5461906  89.6536172  91.9057672  88.4282200
  90.4423031  90.9368164  90.1802772  91.2615920  91.4312243  90.2037609
  90.7159839  90.0200132  90.1520339 100.1989627  83.3278916  79.5430727
  99.3115482  83.6128567  79.3250922 100.6143616  83.1672680  78.6958004
 103.5504163  83.3525437  83.2585067 104.3264553  83.8421890  83.5309684
 102.8252297  83.7783491  83.7156936 105.9876722  84.0653056  84.3159007
 106.5821213  83.8248792  83.6052316 106.0603306  83.3460187  84.9432544
  88.2073878  97.9086667  84.6302172  88.0728345  97.1487068  84.0640170
  87.7905940  98.6327567  84.1630961  99.3432841  93.0923591  73.6378747
 100.0468691  93.2973593  74.2536403  98.6195489  93.6600353  73.9027831
 100.1730651  88.8433452  79.7581018 100.1165852  89.3002004  78.9188650
 100.7258993  88.0824137  79.5803860 103.9835457  84.6323184  80.5831137
 103.7272391  84.2319820  81.4139345 103.3588325  85.3466978  80.4581276
 108.2947795  87.3719257  83.0902429 107.7347353  87.4412447  83.8633991
 107.6891298  87.1960242  82.3701925  91.3643003  98.8055984  84.8420615
  91.2475388  99.7501417  84.7399305  90.5435450  98.5029546  85.2306414
 101.2519538  93.5306120  75.6877208 102.0865142  93.0987319  75.5054682
 101.0903881  93.3588134  76.6154102 100.9065430  90.0338233  77.0533547
 100.8514234  89.8682505  76.1121991 100.2811485  90.7414266  77.2095737
  85.6957945  85.2706298  90.8794969  86.3416809  84.7605252  91.3682194
  85.4875096  86.0074979  91.4538394  94.2161556  79.5346342  76.6318865
  94.2040225  80.4788182  76.7887136  95.1084977  79.3516488  76.3378326
  92.3897518  99.4584246  88.0576543  93.2924764  99.4907856  88.3743038
  92.1634888  98.5284697  88.0722879  94.1451120  98.2115233  84.7186622
  93.1946751  98.2117094  84.6050994  94.4483606  97.4647967  84.2022656
  98.0313675  76.1289119  80.8864802  97.2646071  75.5747606  81.0321484
  98.4424380  76.2010988  81.7478954  90.0355436  82.4173915  94.9769983
  90.8986898  82.0610720  95.1873308  89.4620847  82.0787810  95.6645388
 102.5480335 105.8538676  81.7090800 101.9845200 105.7628613  80.9407088
 102.4332730 105.0338580  82.1893292 102.0535521 106.6098781  77.4192399
 102.8266397 106.0627768  77.2805275 102.4060920 107.4743030  77.6306861
 104.3901799 102.7691447  75.0510849 104.6427319 102.2472968  74.2894312
 103.4526358 102.6057592  75.1537533 104.1098087 104.6719553  77.2535224
 103.9934346 103.9964456  77.9216308 104.2200347 104.1851927  76.4367377
 106.4529628 104.1329700  80.9581913 106.0887836 103.6060321  81.6694835
 107.3096744 103.7428169  80.7848399 106.0935115  99.1619599  75.9543262
 106.2609518 100.0299836  76.3213733 105.9032284  99.3246881  75.0304551
 106.0724336 101.6177257  76.9389929 105.9523961 102.0634308  77.7775409
 105.3776925 101.9662575  76.3803467 104.8675833 102.9322109  79.2323494
 105.5699876 103.3843153  79.6997421 104.5356461 102.2905928  79.8603387
  98.6101167 101.1905662  84.5340628  97.8200221 101.4463190  84.0580739
  99.1012414 102.0053999  84.6392668 100.5615912 101.5550241  81.4924105
  99.7647075 101.6668935  82.0107600 100.3341504 101.8936893  80.6264995
  99.5598995 107.2638490  79.8813525 100.0723515 108.0581740  80.0319089
 100.2121708 106.5664780  79.8147126  97.5247911 105.5927144  80.6573095
  98.3623133 106.0024152  80.4406803  97.7026179 104.6526586  80.6273289
 107.0059455  98.1051925  81.4042167 106.1501051  97.7158776  81.2247805
 107.4186406  98.1843886  80.5441952 104.7801487  95.7236998  84.8099908
 105.6454484  95.5279807  84.4505797 104.8478996  95.4947350  85.7369265
 109.2098647 101.1329317  78.1716709 108.9048782 101.4475466  79.0226853
 110.1629089 101.2110737  78.2144042 102.3863806  97.9539206  82.1816275
 102.9607558  97.7314388  81.4489468 102.9734789  98.0227901  82.9344876
 102.7133393  99.9843667  76.2012160 101.8770706 100.3218354  76.5221435
 102.5738163  99.8492647  75.2639297 104.6886474  94.8280455  80.9091344
 104.0350886  94.5129472  80.2847959 104.6466948  94.2056196  81.6351167
 105.7997679 105.1099750  72.8244636 104.8924741 104.8789004  73.0235785
 106.2968711 104.3137370  73.0118618 108.7059262 102.7153804  80.3641672
 109.4531081 103.2275202  80.0548794 108.9750852 102.3937857  81.2246066
 111.1538099  99.7510921  82.3460461 110.4160856  99.2388307  82.6770704
 111.4064873  99.3111302  81.5343738 111.2549727  92.5287173  82.9402231
 111.5608603  91.6684536  82.6528146 111.9802331  93.1204793  82.7401225
  97.5474083 102.9317859  81.3283829  97.3498482 102.3387220  80.6034895
  96.9920747 102.6270069  82.0459767 103.4663166 101.4418025  81.2068801
 102.6531032 101.7412196  81.6133993 103.9622160 101.0473714  81.9243283
 100.0420308 102.4581893  79.0124781  99.1117896 102.3966349  79.2294743
 100.1377780 101.9357846  78.2161422  99.9605857  98.9836706  81.6003022
 100.2212675  99.8982039  81.4912183 100.7823030  98.5161149  81.7499635
 102.5871774  99.8290895  73.4010067 101.7101240  99.7079696  73.0372314
 103.0629527  99.0376973  73.1488956  94.1073914 104.6168054  83.4951574
  94.7944954 104.3029785  82.9072589  93.9522042 105.5209419  83.2218825
  98.9108636  99.5058251  87.9236598  98.8266825  98.8983921  87.1887008
  98.0891342  99.9967269  87.9246094 109.0832350  97.9911815  83.2906793
 109.5801049  97.2381777  82.9707863 108.3119331  98.0276131  82.7250002
 105.6667318 100.1329198  83.0178477 105.2965106  99.5800238  83.7059383
 106.1626411  99.5287331  82.4653477  93.6841890 102.6968648  85.7669041
  93.7225989 102.1632239  86.5606159  93.1782183 102.1703853  85.1480018
  97.3150467 101.4232750  78.8422973  97.6103908 100.5143428  78.7890026
  96.4138503 101.4020489  78.5203975 100.8444714  99.4988747  84.8250521
 100.1231300 100.1124714  84.6857994 101.6337970 100.0346511  84.7467167
  99.0438309  99.1046848  78.9662298  98.7151015  98.2244227  78.7837404
  99.3977680  99.0494516  79.8538687 102.1580132  99.3919817  79.3337775
 102.4976205  99.9205739  78.6116384 102.6052253  99.7300224  80.1096342
 104.1448279  97.8894439  77.5331068 104.8656642  98.2675692  77.0294785
 103.5213583  98.6083316  77.6366046 108.2879402  98.5939588  78.4689400
 108.5043017  99.4764226  78.1678229 107.8073469  98.2025801  77.7395042
 104.8875006  98.5427849  85.0941035 104.8736575  97.6468943  84.7573333
 105.6047435  98.5498513  85.7279321 104.2911902  97.4242229  80.3628605
 104.4127814  96.4958876  80.5619492 104.0013945  97.4380915  79.4506920
 107.1603093  95.1097140  83.4995325 107.1824790  95.1736473  82.5447304
 107.5771152  94.2701649  83.6935831 101.0194594 105.0361540  79.4605561
 100.7740636 104.1323870  79.6585771 101.1890509 105.0378690  78.5185039
 100.2890242 100.7689897  76.9591722  99.5959487 100.8434252  76.3031758
 100.0441994 100.0050241  77.4813239 108.9603898  92.3285499  84.3631213
 109.2405652  91.6608688  84.9891640 109.7454505  92.5214594  83.8505877
 107.1484165 102.8405305  73.2672292 108.0943270 102.7111513  73.3360710
 106.7698410 102.1019967  73.7441720 113.1206050  94.5061311  83.2299184
 112.9230871  94.1976400  84.1142516 113.7305755  95.2322950  83.3597113
 105.3327082 100.7655282  73.2027177 104.4258538 100.4688394  73.2789891
 105.6103063 100.4685100  72.3361463  96.2505023 102.0861645  83.6526223
  95.9307807 101.2326953  83.3600597  95.7038451 102.3010223  84.4084191
 106.9489148  95.3092171  79.3571418 106.1389877  94.9639256  79.7326664
 107.6373565  94.9999715  79.9459030 108.8779696  94.3870218  80.9795715
 109.4310735  94.8065672  81.6385738 109.1149783  93.4605966  81.0218671
 104.1025867  97.6242217  73.3439156 104.9645031  97.9497115  73.6034974
 104.2876211  96.8373713  72.8312222  96.1193283 105.7064557  85.6219345
  95.4256754 105.2918509  85.1089299  96.8666274 105.7485093  85.0252764
 112.2558504  96.4970743  80.4874379 111.6757173  97.1555547  80.1052432
 111.9894436  95.6748088  80.0761797 110.7062070  95.8975801  82.6895700
 111.2061848  96.0092336  81.8810018 111.3497678  95.5936854  83.3296508
  98.0330025 105.6382810  83.4985360  98.0100713 105.7370498  82.5467243
  98.3430662 106.4847961  83.8202526 111.0383382  98.6570834  79.5430727
 110.1509237  98.9420484  79.3250922 111.4537371  98.4964597  78.6958004
 105.0555310  94.8638260  76.6318865 105.0433980  95.8080100  76.7887136
 105.9478732  94.6808405  76.3378326 108.8707430  91.4581037  80.8864802
 108.1039825  90.9039523  81.0321484 109.2818135  91.5302905  81.7478954
  43.0917368  -5.4479740  63.7450571  42.4405348  -4.8625660  63.3584585
  43.8861731  -4.9173545  63.8045609  37.0172995  -8.3590603  64.1437706
  37.7903871  -8.9061616  64.0050582  37.3698394  -7.4946354  64.3552167
  38.8558038  -7.0314221  77.3504605  38.5647904  -6.1268590  77.2351271
  39.4915022  -6.9897693  78.0648675  44.5692633  -7.7589308  64.2819556
  43.9338466  -7.6854682  64.9940460  44.2390040  -7.1695709  63.6038635
  43.8147923  -7.3452805  74.3454399  43.5148646  -6.4427766  74.2370206
  43.4698982  -7.6120622  75.1975552  38.7968703  -0.5808485  67.3125366
  38.7192732   0.3699340  67.3913847  38.1930346  -0.9262612  67.9700293
  40.8944421  -8.1590427  69.1479236  41.3582766  -7.8802724  68.3583858
  40.6301219  -9.0606982  68.9652327  37.7868502  -8.6118945  72.0858999
  38.3569859  -8.1831677  71.4476484  38.3776614  -8.8936361  72.7843185
  41.3559054  -6.8894439  76.1651926  41.4203486  -6.4274032  77.0010098
  40.6469978  -7.5197074  76.2934236  41.0707072  -5.2226332  66.0330906
  40.9352746  -4.3774796  66.4615754  41.6116884  -5.0207054  65.2696840
  36.3331354  -4.5885138  68.6881584  36.5097982  -3.6667173  68.5002568
  37.1288187  -4.9026718  69.1175964  42.6975548  -4.6002765  80.1631248
  42.2539402  -5.3866387  79.8452153  43.3592762  -4.4123615  79.4975139
  37.4562669  -3.0706964  74.6891927  38.0070094  -3.1989900  73.9168921
  36.6174145  -2.7712075  74.3386820  44.7956786  -4.3199965  78.1912650
  44.7775261  -3.4991084  77.6992919  45.7176706  -4.4445890  78.4162791
  41.2529840  -6.8055836  79.0336158  41.7858177  -7.5667548  78.8035466
  40.7243921  -7.0982184  79.7760312  42.6182553  -7.6769843  66.5454970
  42.0903914  -8.4117084  66.2328207  42.1170056  -6.8995167  66.2994938
  43.6703232  -1.1492126  62.4686629  42.9964931  -0.8460429  63.0771587
  44.0569054  -0.3463046  62.1192086  47.1742654  -6.1470449  67.8405101
  46.7204981  -6.9879539  67.8970291  46.5436621  -5.5109050  68.1779881
  45.6175593  -4.3093952  68.7754919  45.9098568  -3.7488895  68.0567284
  46.1274214  -4.0165391  69.5308078  41.6399474  -8.2168295  61.4102012
  41.2018904  -8.9332436  60.9507649  42.3809915  -7.9892180  60.8487103
  40.5809218  -3.5313601  69.8648372  40.5385397  -3.3052755  68.9356904
  41.4971917  -3.7650226  70.0134173  38.6975019  -6.6550572  69.6610335
  39.4915618  -7.1500252  69.4592910  37.9866712  -7.1832709  69.2978040
  43.5169864  -4.2732477  74.0122702  43.5706886  -3.7041540  74.7800418
  42.6484645  -4.1030591  73.6476739  41.2746295  -6.0821550  73.3408172
  41.1357381  -6.4502766  74.2134110  40.4860891  -5.5673911  73.1692130
  41.8694447  -0.9812454  64.6833708  42.0446203  -1.4524410  65.4979331
  41.1827235  -0.3546687  64.9114969  42.8251510  -6.7039947  70.7297010
  42.4901343  -6.7439177  71.6254659  42.3255456  -7.3695231  70.2567420
  47.4164834  -4.6485005  78.6639850  47.3577380  -5.3325785  77.9970433
  47.8184352  -3.9066015  78.2120476  36.4355532   2.1676909  71.4573568
  36.6752131   2.7995433  72.1352587  35.5924729   1.8164949  71.7438928
  40.9483394  -2.0243968  73.8615072  40.8753566  -1.2188997  74.3734377
  40.5060787  -1.8252003  73.0363094  40.7373174  -2.7872198  67.3717894
  39.9540696  -2.2450518  67.4656119  41.4365919  -2.2698219  67.7712135
  43.4082078  -2.1257134  76.0173231  44.1210050  -1.4909670  75.9449133
  42.9172106  -2.0293268  75.2013233  38.4593991  -4.3762691  76.8378802
  39.1603451  -3.7426208  76.9908196  37.9889106  -4.0347959  76.0774441
  46.5848387  -6.0344741  65.1226709  46.8608231  -6.1488147  66.0320583
  45.7152886  -6.4327256  65.0838882  43.2202451  -1.7858390  68.7659523
  43.4024846  -2.6036734  69.2287275  44.0435437  -1.5690698  68.3284413
  43.5544617  -2.8590205  66.0274571  44.0832383  -3.3697751  65.4144733
  43.8172836  -3.1747675  66.8920104  34.0561709  -4.8426336  73.7709905
  34.6415146  -5.5882648  73.9037809  33.8586548  -4.5322379  74.6546569
  36.9100365  -1.8075088  68.7872347  36.2410740  -1.3228961  68.3036387
  36.7713234  -1.5605868  69.7015726  41.0505633   0.2268655  75.3855005
  41.6023941   0.3900277  76.1504091  41.3911827   0.8173093  74.7135030
  45.9016508  -4.9470087  81.2403660  46.4456411  -4.3340129  80.7458615
  45.3203352  -4.3890509  81.7570673  44.1874020  -1.8249369  72.3718688
  44.0625160  -2.6259630  71.8629633  44.8453112  -1.3303176  71.8832658
  46.2508929  -4.0240349  73.9998238  45.3039264  -4.1434998  73.9276564
  46.5991702  -4.9117851  74.0824499  43.2555362  -4.2287633  70.2002590
  43.1080325  -5.1570926  70.3810160  44.0808856  -4.2067542  69.7159665
  46.8589484  -3.4059074  71.2867463  47.7836031  -3.6116213  71.1491914
  46.6904787  -3.6542673  72.1956804  46.6484800  -2.8873407  66.6429554
  46.8221678  -3.4526984  65.8903407  47.1413691  -2.0872512  66.4609044
  47.6359973  -3.5706643  63.7426452  48.3310877  -2.9499950  63.9613767
  47.9783123  -4.4211291  64.0178830  41.1971445  -2.2072863  77.4003660
  41.5058571  -2.4523717  78.2726359  41.9946927  -2.0026225  76.9122530
  41.2192057  -0.0534954  69.6309036  40.7797047  -0.5458575  70.3241893
  41.9700174  -0.5961986  69.3901112  33.6984396  -3.8623413  69.6333664
  34.5242415  -4.1619641  69.2532308  33.3478448  -4.6315790  70.0823453
  38.6665929  -4.5096945  71.7031338  38.0445938  -5.1726240  71.4033566
  39.3370796  -4.4835813  71.0204986  49.2245302  -5.4874033  80.5764981
  48.4340846  -5.5049894  80.0369480  48.9878656  -4.9485740  81.3314018
  38.2279436  -5.9593021  65.1789799  38.3767556  -5.2757557  64.5256471
  39.0345879  -5.9787931  65.6939254  41.7274841  -3.4644891  62.6501546
  41.1548808  -2.8454704  62.1972018  42.3007635  -2.9145529  63.1841468
  44.9472101  -3.1807741  63.7810128  45.8802774  -3.2462179  63.9843004
  44.8595314  -2.3451474  63.3224661  47.5760118  -3.8641870  60.7414076
  47.4973749  -4.1982007  61.6349834  48.3969784  -3.3720102  60.7405548
  34.0105106  -1.7310798  71.3547479  33.8759574  -2.4910398  70.7885477
  33.5937169  -1.0069899  70.8876268  45.1464069  -6.5473875  60.3624054
  45.8499920  -6.3423872  60.9781710  44.4226718  -5.9797113  60.6273138
  37.1674232  -0.8341481  71.5665921  37.0506616   0.1103951  71.4644612
  36.3466679  -1.1367920  71.9551721  47.0550767  -6.1091346  62.4122514
  47.8896371  -6.5410147  62.2299989  46.8935110  -6.2809332  63.3399409
  44.0242566  -7.3010321  83.1032416  44.8933726  -7.1269668  82.7419051
  43.5449318  -6.4815904  82.9808146  38.1928746  -0.1813220  74.7821850
  39.0955993  -0.1489609  75.0988345  37.9666116  -1.1112769  74.7968186
  39.9482348  -1.4282233  71.4431929  38.9977979  -1.4280371  71.3296301
  40.2514835  -2.1749498  70.9267963  55.6835042   4.4078305  72.5077691
  56.3213452   4.2885053  71.8041031  55.5655885   5.3559149  72.5665643
  52.4924748   4.3605733  72.4439216  52.1543260   4.2446798  71.5559750
  53.3614516   3.9596899  72.4240222  48.3511564   6.2141210  68.4336107
  47.7876429   6.1231147  67.6652394  48.2363959   5.3941114  68.9138599
  52.9744531   5.5140585  78.4025421  52.9633172   5.1193383  77.5305925
  53.1365171   4.7806658  78.9959193  45.8975996   7.7092401  71.2720327
  46.6897288   7.3683226  70.8566626  46.1372646   7.8187377  72.1922480
  53.9311123   9.8812178  63.7450571  53.2799102  10.4666258  63.3584585
  54.7255485  10.4118372  63.8045609  47.8566750   6.9701315  64.1437706
  48.6297626   6.4230302  64.0050582  48.2092149   7.8345564  64.3552167
  49.6951792   8.2977697  77.3504605  49.4041658   9.2023328  77.2351271
  50.3308777   8.3394225  78.0648675  50.6207999   5.6754546  73.9405965
  51.2171571   5.4510568  73.2262928  50.6782971   4.9339291  74.5431413
  50.1933028   3.1293981  61.7756156  50.4458548   2.6075502  61.0139619
  49.2557587   2.9660126  61.8782839  55.2376310   2.1329759  69.5830899
  56.0239400   1.7149182  69.2321316  55.5015015   3.0375851  69.7512547
  55.4086388   7.5702610  64.2819556  54.7732221   7.6437236  64.9940460
  55.0783794   8.1596208  63.6038635  60.6384738   2.0704992  70.4863877
  61.3709909   1.5004209  70.7201707  59.8824093   1.6826593  70.9270383
  49.9129316   5.0322087  63.9780531  49.7965574   4.3566990  64.6461615
  50.0231576   4.5454461  63.1612684  52.2560857   4.4932234  67.6827220
  51.8919064   3.9662855  68.3940141  53.1127973   4.1030703  67.5093705
  51.8966344  -0.4777866  62.6788568  52.0640747   0.3902370  63.0459039
  51.7063513  -0.3150585  61.7549858  54.6541677   7.9839113  74.3454399
  54.3542400   8.8864151  74.2370206  54.3092737   7.7171296  75.1975552
  48.1054159   4.4352909  70.3791103  47.1804655   4.3029123  70.5868795
  48.3538572   5.2147129  70.8761046  58.0538821   0.5021653  72.0251836
  57.1455699   0.4337061  71.7310597  58.0026417   0.9793598  72.8533662
  51.8755565   1.9779791  63.6635235  51.7555190   2.4236842  64.5020716
  51.1808153   2.3265109  63.1048773  45.4662970   4.0786183  71.2134892
  45.5955351   4.3320662  72.1274304  44.7860421   4.6713891  70.8939547
  49.6362457  14.7483433  67.3125366  49.5586487  15.6991258  67.3913847
  49.0324101  14.4029305  67.9700293  52.1279687   1.9211298  79.9686733
  51.3513021   2.4805218  79.9589598  52.7670250   2.4068081  80.4901604
  59.9200468  -1.2961909  73.8029710  59.2774848  -1.0029376  73.1569505
  59.4155396  -1.4108989  74.6082907  57.5740631   2.4501264  64.4915569
  58.4858487   2.6828651  64.3163267  57.0650278   3.0338308  63.9290648
  50.3826059   4.7296752  79.5304700  51.1240744   5.2681796  79.2539524
  49.6763045   5.3563040  79.6876252  55.8581399   6.8725892  78.1276862
  56.2664755   6.4308303  77.3831494  55.1358660   6.2978520  78.3811055
  52.2112469   1.8098499  75.5010419  53.0573664   2.2337912  75.6445068
  52.1511107   1.1532123  76.1948982  56.1810214   7.4327083  71.8829151
  55.5519076   7.5972797  71.1805219  55.7935876   7.8468692  72.6540115
  60.0599445   8.3681521  69.2373515  59.3750484   8.7480422  68.6870548
  60.1443295   8.9776847  69.9705462  55.3611914  -0.5297133  77.1591592
  55.1172846   0.2244928  76.6225868  55.6371845  -0.1511785  77.9938840
  57.3150377   6.0141480  75.8368858  57.5267272   6.6573239  75.1603239
  57.2680125   5.1803796  75.3690788  54.9176606  -1.3740700  72.7405430
  54.0561085  -1.0759446  73.0322168  54.9439041  -1.1570301  71.8086463
  51.7338175   7.1701491  69.1479236  52.1976521   7.4489194  68.3583858
  51.4694974   6.2684935  68.9652327  48.6262256   6.7172972  72.0858999
  49.1963614   7.1460241  71.4476484  49.2170368   6.4355557  72.7843185
  50.6707061   3.2924643  65.9568801  51.3731105   3.7445687  66.4242727
  50.3387690   2.6508462  66.5848694  49.1187423   1.8836400  80.3320010
  48.4886084   2.5652681  80.5655407  49.0123511   1.7719481  79.3873149
  44.4132395   1.5508196  71.2585935  43.6231449   1.8065724  70.7826045
  44.9043643   2.3656534  71.3637975  58.4296205   8.8913435  74.0091215
  59.2513649   8.4893622  73.7273897  58.4258608   8.7881669  74.9607331
  46.3647141   1.9152775  68.2169411  45.5678304   2.0271469  68.7352907
  46.1372733   2.2539427  67.3510302  52.1952808   8.4397478  76.1651926
  52.2597241   8.9017886  77.0010098  51.4863732   7.8094843  76.2934236
  42.6970098   1.8038686  73.6900925  42.9478137   2.6885696  73.9558501
  43.2329647   1.6243288  72.9176017  66.5202198   5.2352184  70.3576187
  65.7665906   4.6659582  70.2020191  66.6549739   5.2014848  71.3046822
  51.9100826  10.1065586  66.0330906  51.7746501  10.9517122  66.4615754
  52.4510639  10.3084863  65.2696840  48.3968166  -3.8142834  82.6945261
  48.0035111  -4.3676636  83.3692906  49.2134306  -3.5032256  83.0851779
  45.3630223   7.6241024  66.6058831  45.8754744   8.4184274  66.7564396
  46.0152936   6.9267314  66.5392433  47.1725108  10.7406780  68.6881584
  47.3491737  11.6624745  68.5002568  47.9681942  10.4265199  69.1175964
  51.3136127  -2.3984955  80.2865518  52.0545840  -1.7977802  80.2069980
  51.5454050  -3.1407317  79.7283561  46.4577465   2.7871412  78.5643748
  46.3430980   1.8856669  78.8650847  45.6021982   3.0335109  78.2128564
  53.5369302  10.7289152  80.1631248  53.0933157   9.9425531  79.8452153
  54.1986516  10.9168303  79.4975139  48.2956424  12.2584954  74.6891927
  48.8463849  12.1302017  73.9168921  47.4567900  12.5579843  74.3386820
  55.6350541  11.0091952  78.1912650  55.6169016  11.8300833  77.6992919
  56.5570461  10.8846027  78.4162791  52.0923595   8.5236082  79.0336158
  52.6251931   7.7624370  78.8035466  51.5637676   8.2309734  79.7760312
  43.3279140   5.9529678  67.3818402  44.1654362   6.3626687  67.1652110
  43.5057408   5.0129120  67.3518596  55.2243572   3.6204759  63.0702235
  54.7090196   4.3909363  63.3090622  54.9520881   2.9469895  63.6935296
  52.8090683  -1.5345540  68.1287473  51.9532280  -1.9238690  67.9493112
  53.2217635  -1.4553580  67.2687259  54.3389830  -3.9999197  72.5279033
  53.8354626  -4.0369062  71.7146838  54.6320437  -3.0906454  72.5875690
  50.5832716  -3.9160467  71.5345215  51.4485713  -4.1117659  71.1751104
  50.6510225  -4.1450116  72.4614571  60.1977847   6.3737113  65.0055408
  59.4207289   6.0348273  64.5610570  60.8769327   6.3789737  64.3310373
  55.0129876   1.4931851  64.8962016  54.7080011   1.8078000  65.7472159
  55.9660318   1.5713271  64.9389349  53.4576307   7.6522074  66.5454970
  52.9297669   6.9174834  66.2328207  52.9563810   8.4296751  66.2994938
  58.4369153   5.8471095  71.6622016  57.7792828   6.5370356  71.7502145
  59.2409553   6.2367527  72.0056003  48.1895035  -1.6858260  68.9061581
  48.7638787  -1.9083078  68.1734774  48.7766017  -1.6169565  69.6590183
  57.2474612   4.2015467  69.7125958  57.7606494   4.8345459  70.2147668
  57.8975836   3.6016663  69.3469318  48.5164622   0.3446202  62.9257467
  47.6801934   0.6820888  63.2466741  48.3769392   0.2095181  61.9884604
  50.4917703  -4.8117011  67.6336651  49.8382115  -5.1267993  67.0093266
  50.4498177  -5.4341270  68.3596474  51.6028908   5.4702284  59.5489943
  50.6955969   5.2391538  59.7481092  52.0999940   4.6739904  59.7363925
  54.5096986  14.1799792  62.4686629  53.8358685  14.4831488  63.0771587
  54.8962808  14.9828872  62.1192086  53.7255443   1.6764923  71.9584299
  52.8078004   1.8979870  71.8005987  54.1415587   1.7511233  71.0996006
  54.5090491   3.0756339  67.0886979  55.2562310   3.5877736  66.7794101
  54.7782080   2.7540391  67.9491372  52.7817141   5.5714879  64.0713933
  51.8728360   5.2873912  64.1686403  52.8112225   5.9913958  63.2117240
  58.0136408   9.1821469  67.8405101  57.5598736   8.3412379  67.8970291
  57.3830375   9.8182867  68.1779881  56.9569328   0.1113455  69.0705768
  56.2192085  -0.4009159  69.4016011  57.2096102  -0.3286164  68.2589045
  56.4569348  11.0197966  68.7754919  56.7492322  11.5803023  68.0567284
  56.9667968  11.3126527  69.5308078  43.3505311   3.2920393  68.0529135
  43.1529711   2.6989754  67.3280202  42.7951975   2.9872604  68.7705074
  51.3302035   3.1843500  70.1723728  51.3850645   2.2317336  70.0966205
  50.5193237   3.3402939  70.6565027  52.4793229   7.1123623  61.4102012
  52.0412659   6.3959482  60.9507649  53.2203670   7.3399738  60.8487103
  49.2694395   1.8020560  67.9314107  48.4562261   2.1014730  68.3379299
  49.7653389   1.4076248  68.6488590  51.4202973  11.7978317  69.8648372
  51.3779152  12.0239163  68.9356904  52.3365672  11.5641691  70.0134173
  54.8668607   2.2662384  76.7629001  55.2217994   2.4933857  77.6223467
  55.5140738   2.5980761  76.1406256  60.5966344   5.3880820  67.4678330
  60.4584242   5.5782416  66.5399519  60.2402562   6.1500203  67.9246381
  48.7608470  -0.6261085  73.5475342  49.4007849  -0.7672326  72.8498306
  47.9286000  -0.9126571  73.1713944  60.6235723   7.4557347  72.4789602
  61.0572230   7.3632636  73.3272656  61.3367304   7.4314848  71.8409618
  49.5368774   8.6741346  69.6610335  50.3309372   8.1791666  69.4592910
  48.8260466   8.1459209  69.2978040  54.3563618  11.0559441  74.0122702
  54.4100640  11.6250377  74.7800418  53.4878399  11.2261326  73.6476739
  45.8451537   2.8184427  65.7370087  44.9149125   2.7568883  65.9540050
  45.9409009   2.2960380  64.9406729  45.7637086  -0.6560760  68.3248329
  46.0243903   0.2584573  68.2157490  46.5854258  -1.1236317  68.4744942
  47.2362011   0.7576997  75.4947154  47.9085065   0.5494359  74.8459802
  46.4091798   0.5599083  75.0552386  61.4851273   7.4981048  75.0122487
  61.6787163   8.4026858  75.2581762  61.3851891   7.0388467  75.8461072
  53.1387584  -2.6161062  77.5112814  52.4915499  -1.9171112  77.4177291
  53.9088599  -2.1824918  77.8789063  56.5466381   7.6487790  80.5863368
  56.3951888   7.4198342  79.6693451  56.5371061   8.6058392  80.5994713
  53.3151718   5.2219703  75.5709634  54.2443778   5.3730863  75.3978601
  52.8942748   5.3103724  74.7158281  52.1140050   9.2470368  73.3408172
  51.9751135   8.8789152  74.2134110  51.3254646   9.7618007  73.1692130
  52.7088202  14.3479464  64.6833708  52.8839957  13.8767507  65.4979331
  52.0220990  14.9745230  64.9114969  53.6645265   8.6251970  70.7297010
  53.3295097   8.5852740  71.6254659  53.1649210   7.9596686  70.2567420
  47.6389509   4.0319600  76.2549591  47.5009307   3.2999839  76.8561130
  48.5494432   3.9428500  75.9733778  56.6004456   5.9708005  61.0034069
  55.9833627   5.2454833  60.9067122  56.1320945   6.7317365  60.6601144
  50.2671809   3.7439560  75.7433270  50.9771428   3.1032752  75.7019889
  50.2241118   3.9952455  76.6659451  58.2558588  10.6806913  78.6639850
  58.1971134   9.9966133  77.9970433  58.6578106  11.4225903  78.2120476
  48.9800743   0.7304778  77.5628910  48.4438100   0.2795516  78.2150506
  48.3917452   0.8650686  76.8199374  47.2749287  17.4968827  71.4573568
  47.5145885  18.1287351  72.1352587  46.4318483  17.1456867  71.7438928
  48.3903002   0.1893429  60.1255374  47.5132469   0.0682230  59.7617620
  48.8660755  -0.6020493  59.8734262  58.2575995   8.6446497  76.8953829
  57.3702774   8.3072419  77.0180228  58.8274546   7.9129528  77.1322595
  39.9105142   4.9770589  70.2196881  40.5976182   4.6632319  69.6317896
  39.7553271   5.8811953  69.9464132  44.7139865  -0.1339215  74.6481904
  44.6298053  -0.7413545  73.9132314  43.8922571   0.3569804  74.6491401
  51.7877149  13.3047949  73.8615072  51.7147320  14.1102921  74.3734377
  51.3454542  13.5039915  73.0363094  51.5766928  12.5419719  67.3717894
  50.7934450  13.0841400  67.4656119  52.2759674  13.0593699  67.7712135
  54.8863578  -1.6485651  70.0152099  55.3832278  -2.4015689  69.6953170
  54.1150560  -1.6121335  69.4495309  62.7393336   4.0554714  71.6570391
  62.7283212   4.9379430  71.2864324  61.8710715   3.7026265  71.4624928
  54.2475832  13.2034783  76.0173231  54.9603804  13.8382248  75.9449133
  53.7565861  13.2998649  75.2013233  55.9693359   7.1086036  67.5890523
  55.0349638   7.2287498  67.4195227  56.1470028   6.2058503  67.3250533
  51.4698547   0.4931732  69.7423784  51.0996335  -0.0597228  70.4304690
  51.9657640  -0.1110135  69.1898784  59.3565911   2.9503355  68.1240557
  59.8226363   3.7831347  68.0500860  59.8073411   2.4848337  68.8285815
  49.2987746  10.9529227  76.8378802  49.9997205  11.5865710  76.9908196
  48.8282861  11.2943958  76.0774441  57.4242142   9.2947177  65.1226709
  57.7001986   9.1803771  66.0320583  56.5546640   8.8964661  65.0838882
  57.0989032   3.5073834  74.6631352  56.4460482   3.7549742  74.0083805
  57.4769412   2.6937972  74.3293830  54.0596206  13.5433527  68.7659523
  54.2418600  12.7255183  69.2287275  54.8829192  13.7601220  68.3284413
  54.3938371  12.4701713  66.0274571  54.9226138  11.9594167  65.4144733
  54.6566591  12.1544243  66.8920104  53.1476605   4.2493645  81.1497389
  52.4717242   4.1487775  81.8199765  53.9704239   4.0932859  81.6133387
  44.8955464  10.4865582  73.7709905  45.4808901   9.7409270  73.9037809
  44.6980302  10.7969539  74.6546569  47.7494119  13.5216829  68.7872347
  47.0804494  14.0062957  68.3036387  47.6106989  13.7686050  69.7015726
  39.4873119   3.0571182  72.4914348  39.5257218   2.5234773  73.2851466
  38.9813411   2.5306388  71.8725325  51.8899388  15.5560573  75.3855005
  52.4417696  15.7192194  76.1504091  52.2305581  16.1465011  74.7135030
  46.8663881  -2.0964277  75.9876890  46.9305207  -1.2349447  75.5754288
  46.8031001  -2.7090276  75.2549249  46.3416153  -0.0241145  79.6349924
  46.9688192  -0.4064068  80.2487449  45.4844072  -0.2426943  80.0005617
  56.7410262  10.3821830  81.2403660  57.2850166  10.9951789  80.7458615
  56.1597107  10.9401409  81.7570673  43.1181696   1.7835284  65.5668279
  43.4135137   0.8745963  65.5135333  42.2169732   1.7623024  65.2449282
  55.0267775  13.5042548  72.3718688  54.9018914  12.7032288  71.8629633
  55.6846866  13.9988742  71.8832658  46.6475943  -0.1408719  71.5495828
  45.9262529   0.4727248  71.4103301  47.4369199   0.3949046  71.4712474
  57.0902683  11.3051568  73.9998238  56.1433019  11.1856920  73.9276564
  57.4385456  10.4174066  74.0824499  49.4502257  -2.8054293  77.8236480
  49.9736659  -2.5591996  78.5862789  49.2314590  -1.9734258  77.4039617
  44.8469538  -0.5350618  65.6907604  44.5182244  -1.4153239  65.5082710
  45.2008908  -0.5902949  66.5783994  54.0949117  11.1004285  70.2002590
  53.9474079  10.1720992  70.3810160  54.9202610  11.1224375  69.7159665
  47.9611361  -0.2477648  66.0583082  48.3007433   0.2808273  65.3361690
  48.4083481   0.0902758  66.8341649  57.6983238  11.9232843  71.2867463
  58.6229786  11.7175705  71.1491914  57.5298542  11.6749244  72.1956804
  50.6554802  -1.8640598  75.5086150  50.3151622  -2.6632785  75.9106830
  49.9493808  -1.5638887  74.9362983  49.9479508  -1.7503027  64.2576375
  50.6687871  -1.3721774  63.7540092  49.3244812  -1.0314150  64.3611353
  54.0910631  -1.0457878  65.1934707  54.3074245  -0.1633240  64.8923535
  53.6104698  -1.4371664  64.4640349  48.8309852   1.9127835  71.7705452
  48.6854433   2.2268139  72.6629733  48.3535056   2.5312736  71.2176350
  50.6906235  -1.0969617  71.8186341  50.6767804  -1.9928523  71.4818639
  51.4078663  -1.0898953  72.4524627  52.5432366  -0.6632276  73.8639469
  52.2850144   0.2584794  73.8623799  52.0117406  -1.0601842  74.5539933
  57.4878555  12.4418511  66.6429554  57.6615432  11.8764933  65.8903407
  57.9807446  13.2419406  66.4609044  43.3055514   4.4533180  74.7093113
  42.7608983   5.2292988  74.8413387  44.1834864   4.8003984  74.5512234
  50.0943131  -2.2155236  67.0873911  50.2159042  -3.1438590  67.2864799
  49.8045174  -2.2016550  66.1752227  63.3417946   5.2054934  68.2619854
  63.7849092   4.4562259  67.8638977  62.4644456   5.1965070  67.8793586
  58.4753727  11.7585275  63.7426452  59.1704632  12.3791968  63.9613767
  58.8176877  10.9080626  64.0178830  44.0921536   3.5803076  77.6023270
  43.3503272   3.7285711  78.1887900  43.7714281   3.8411342  76.7390019
  60.3745150   9.2084981  65.2713783  60.8996474   9.5472253  64.5463103
  60.2867503   8.2731996  65.0876918  52.0365199  13.1219054  77.4003660
  52.3452325  12.8768201  78.2726359  52.8340681  13.3265693  76.9122530
  52.0585811  15.2756964  69.6309036  51.6190801  14.7833343  70.3241893
  52.8093928  14.7329932  69.3901112  44.5378150  11.4668505  69.6333664
  45.3636170  11.1672277  69.2532308  44.1872202  10.6976127  70.0823453
  49.5059683  10.8194973  71.7031338  48.8839692  10.1565678  71.4033566
  50.1764550  10.8456105  71.0204986  42.7386755   9.3854831  70.5922598
  41.9018663   8.9577006  70.4106599  42.7110401   9.5787275  71.5293389
  49.5784211  -0.7023239  81.2963844  49.6272366   0.1738884  80.9141614
  50.1206725  -1.2445846  80.7235487  60.0639056   9.8417884  80.5764981
  59.2734600   9.8242023  80.0369480  59.8272411  10.3806178  81.3314018
  60.1836931   6.6910351  77.8897710  60.2334936   6.5260358  78.8313232
  60.0750855   5.8237610  77.4995590  49.0673190   9.3698896  65.1789799
  49.2161310  10.0534361  64.5256471  49.8739634   9.3503986  65.6939254
  57.4740694   2.6741279  79.2057016  58.3750557   2.5347744  78.9141014
  57.5488668   2.8395734  80.1455194  51.8083499   0.0508133  78.0510203
  50.9386809   0.3441700  77.7792791  52.0442979   0.6348578  78.7717466
  61.6855128   9.1107292  78.1339731  61.3939937   9.4737273  78.9703192
  61.0727260   8.3974301  77.9553063  62.8850811   6.6760172  70.6542301
  63.7197702   7.1149976  70.8179862  63.0209939   6.1998825  69.8350547
  59.9342316   4.2339907  76.6019789  60.4096438   4.4267553  75.7938641
  59.0107882   4.2899093  76.3563173  46.8225823   5.3964074  66.1850867
  46.5771865   4.4926404  66.3831078  46.9921738   5.3981224  65.2430345
  54.5122533  -3.7312250  75.5675623  55.0304477  -2.9951223  75.2422112
  54.1577666  -3.4248256  76.4022382  46.0921471   1.1292432  63.6837029
  45.3990716   1.2036787  63.0277065  45.8473223   0.3652775  64.2058546
  52.5668596  11.8647027  62.6501546  51.9942563  12.4837214  62.1972018
  53.1401389  12.4146389  63.1841468  58.6343985   1.1105667  74.8348095
  59.5861408   1.2103765  74.8560319  58.4647436   0.3183935  75.3446179
  56.6558365  -1.8038750  75.0207496  56.0608297  -1.5233737  74.3253984
  56.3708062  -1.3144849  75.7924237  55.7865855  12.1484177  63.7810128
  56.7196529  12.0829739  63.9843004  55.6989068  12.9840444  63.3224661
  58.4153872  11.4650047  60.7414076  58.3367504  11.1309911  61.6349834
  59.2363539  11.9571815  60.7405548  61.1132063   4.3311787  73.9490394
  61.0808383   3.3927787  74.1350078  61.7232687   4.4095823  73.2156219
  52.9515394   3.2007840  59.9917598  53.8974499   3.0714048  60.0606016
  52.5729639   2.4622502  60.4687027  61.2626552   1.1222830  73.9948678
  60.7465600   0.3381287  73.8078606  62.1466500   0.7941547  74.1595197
  66.9308613   5.3927793  73.0896431  67.6612002   5.1313082  73.6504135
  66.3215559   4.6556515  73.1298499  65.0123910   3.5335656  73.6870882
  64.2857074   3.3991621  73.0787374  64.5971197   3.8412485  74.4927600
  52.8354087   7.2525586  81.4518255  53.7557096   7.4304185  81.6458302
  52.8003670   6.3081631  81.2997955  51.1358311   1.1257816  59.9272484
  50.2289767   0.8290929  60.0035197  51.4134292   0.8287634  59.0606770
  42.0536252   2.4464179  70.3771530  41.7339036   1.5929488  70.0845904
  41.5069680   2.6612758  71.1329497  45.8316159   5.1626620  74.0941037
  46.0502169   6.0943728  74.1129070  46.2441933   4.8034595  74.8795840
  52.7520377  -4.3305294  66.0816725  51.9421105  -4.6758209  66.4571971
  53.4404794  -4.6397751  66.6704337  50.7044025   0.7359826  83.4843786
  50.6040751   1.6854183  83.4155877  50.4865567   0.4078065  82.6119856
  49.9057096  -2.0155249  60.0684463  50.7676260  -1.6900350  60.3280280
  50.0907440  -2.8023753  59.5557529  41.9224512   6.0667091  72.3464652
  41.2287983   5.6521044  71.8334606  42.6697503   6.1087627  71.7498071
  50.5675295   4.1656965  82.3008847  50.0842376   4.9657325  82.5072736
  50.6536234   4.1764910  81.3476291  43.8361254   5.9985345  70.2230667
  43.8131942   6.0973032  69.2712550  44.1461891   6.8450495  70.5447833
  46.4948632   8.0561500  74.3377281  47.4491886   8.0245442  74.2707213
  46.2961156   7.5952123  75.1527507  47.0848014   6.6262616  76.9048079
  47.9040903   7.1206694  76.9282916  47.3584822   5.7094584  76.8765646
  56.8414610  -0.9826632  66.2676034  55.9540465  -0.6976981  66.0496229
  57.2568599  -1.1432869  65.4203311  60.1929147  -0.9580111  69.9830373
  60.9689537  -0.4683659  70.2554990  59.4677281  -0.5322057  70.4402243
  62.6301705  -0.2452492  71.0404314  63.2246196  -0.4856756  70.3297622
  62.7028289  -0.9645361  71.6677850  44.8498861  13.5981119  71.3547479
  44.7153329  12.8381520  70.7885477  44.4330923  14.3222019  70.8876268
  55.9857824   8.7818043  60.3624054  56.6893674   8.9868045  60.9781710
  55.2620473   9.3494805  60.6273138  56.8155634   4.5327904  66.4826324
  56.7590836   4.9896455  65.6433957  57.3683977   3.7718589  66.3049167
  60.6260440   0.3217636  67.3076444  60.3697374  -0.0785728  68.1384651
  60.0013308   1.0361430  67.1826583  64.9372778   3.0613709  69.8147735
  64.3772336   3.1306898  70.5879297  64.3316281   2.8854694  69.0947231
  48.0067987  14.4950436  71.5665921  47.8900371  15.4395869  71.4644612
  47.1860433  14.1923998  71.9551721  57.8944521   9.2200572  62.4122514
  58.7290125   8.7881770  62.2299989  57.7328864   9.0482586  63.3399409
  57.5490413   5.7232685  63.7778853  57.4939217   5.5576957  62.8367298
  56.9236469   6.4308718  63.9341043  42.3382928   0.9600750  77.6040276
  42.9841792   0.4499704  78.0927501  42.1300080   1.6969431  78.1783701
  54.8636321   8.0281597  83.1032416  55.7327480   8.2022249  82.7419051
  54.3843072   8.8476014  82.9808146  50.8586539  -4.7759206  63.3564172
  50.8465209  -3.8317366  63.5132443  51.7509961  -4.9589060  63.0623633
  49.0322501  15.1478698  74.7821850  49.9349748  15.1802308  75.0988345
  48.8059871  14.2179149  74.7968186  50.7876103  13.9009685  71.4431929
  49.8371734  13.9011546  71.3296301  51.0908589  13.1542419  70.9267963
  46.6780419  -1.8931633  81.7015290  47.5411881  -2.2494828  81.9118614
  46.1045830  -2.2317738  82.3890694  66.5228796  19.7370223  72.5077691
  67.1607206  19.6176970  71.8041031  66.4049639  20.6851067  72.5665643
  63.3318503  19.6897651  72.4439216  62.9937014  19.5738716  71.5559750
  64.2008271  19.2888816  72.4240222  59.1905318  21.5433128  68.4336107
  58.6270183  21.4523064  67.6652394  59.0757713  20.7233032  68.9138599
  63.8138286  20.8432503  78.4025421  63.8026926  20.4485301  77.5305925
  63.9758925  20.1098575  78.9959193  56.7369750  23.0384319  71.2720327
  57.5291042  22.6975144  70.8566626  56.9766400  23.1479294  72.1922480
  64.7704877  25.2104095  63.7450571  64.1192857  25.7958176  63.3584585
  65.5649240  25.7410290  63.8045609  58.6960504  22.2993232  64.1437706
  59.4691380  21.7522219  64.0050582  59.0485903  23.1637482  64.3552167
  61.4601754  21.0046463  73.9405965  62.0565326  20.7802486  73.2262928
  61.5176725  20.2631209  74.5431413  61.0326782  18.4585899  61.7756156
  61.2852303  17.9367420  61.0139619  60.0951341  18.2952044  61.8782839
  66.0770065  17.4621677  69.5830899  66.8633154  17.0441100  69.2321316
  66.3408769  18.3667769  69.7512547  66.2480142  22.8994527  64.2819556
  65.6125975  22.9729154  64.9940460  65.9177549  23.4888126  63.6038635
  71.4778492  17.3996910  70.4863877  72.2103664  16.8296127  70.7201707
  70.7217848  17.0118511  70.9270383  60.7523071  20.3614004  63.9780531
  60.6359329  19.6858908  64.6461615  60.8625331  19.8746378  63.1612684
  63.0954612  19.8224152  67.6827220  62.7312819  19.2954773  68.3940141
  63.9521728  19.4322621  67.5093705  69.0003912  11.1118484  74.9458486
  68.6687237  11.9813895  74.7219701  68.4049526  10.7954768  75.6252516
  62.7360099  14.8514051  62.6788568  62.9034501  15.7194288  63.0459039
  62.5457268  15.0141333  61.7549858  58.9447913  19.7644827  70.3791103
  58.0198410  19.6321041  70.5868795  59.1932327  20.5439046  70.8761046
  68.8932576  15.8313570  72.0251836  67.9849453  15.7628979  71.7310597
  68.8420171  16.3085515  72.8533662  62.7149320  17.3071709  63.6635235
  62.5948945  17.7528760  64.5020716  62.0201908  17.6557026  63.1048773
  56.3056724  19.4078101  71.2134892  56.4349106  19.6612579  72.1274304
  55.6254176  20.0005809  70.8939547  62.9673441  17.2503216  79.9686733
  62.1906775  17.8097136  79.9589598  63.6064004  17.7359999  80.4901604
  70.7594222  14.0330009  73.8029710  70.1168602  14.3262542  73.1569505
  70.2549151  13.9182929  74.6082907  68.4134386  17.7793182  64.4915569
  69.3252242  18.0120569  64.3163267  67.9044033  18.3630226  63.9290648
  61.2219814  20.0588669  79.5304700  61.9634498  20.5973713  79.2539524
  60.5156799  20.6854958  79.6876252  66.6975153  22.2017810  78.1276862
  67.1058509  21.7600220  77.3831494  65.9752415  21.6270437  78.3811055
  63.0506223  17.1390417  75.5010419  63.8967419  17.5629830  75.6445068
  62.9904861  16.4824041  76.1948982  67.0203968  22.7619000  71.8829151
  66.3912830  22.9264715  71.1805219  66.6329630  23.1760610  72.6540115
  70.8993200  23.6973438  69.2373515  70.2144238  24.0772340  68.6870548
  70.9837049  24.3068765  69.9705462  66.2005669  14.7994785  77.1591592
  65.9566601  15.5536845  76.6225868  66.4765599  15.1780133  77.9938840
  68.1544132  21.3433397  75.8368858  68.3661027  21.9865157  75.1603239
  68.1073880  20.5095714  75.3690788  65.7570360  13.9551218  72.7405430
  64.8954840  14.2532471  73.0322168  65.7832795  14.1721617  71.8086463
  62.5731930  22.4993408  69.1479236  63.0370275  22.7781111  68.3583858
  62.3088728  21.5976853  68.9652327  59.4656011  22.0464890  72.0858999
  60.0357368  22.4752158  71.4476484  60.0564123  21.7647475  72.7843185
  61.5100816  18.6216561  65.9568801  62.2124859  19.0737605  66.4242727
  61.1781444  17.9800380  66.5848694  59.9581177  17.2128317  80.3320010
  59.3279838  17.8944598  80.5655407  59.8517265  17.1011399  79.3873149
  55.2526150  16.8800114  71.2585935  54.4625204  17.1357642  70.7826045
  55.7437397  17.6948451  71.3637975  69.2689959  24.2205353  74.0091215
  70.0907403  23.8185540  73.7273897  69.2652362  24.1173587  74.9607331
  57.2040895  17.2444693  68.2169411  56.4072059  17.3563387  68.7352907
  56.9766488  17.5831345  67.3510302  53.5363853  17.1330604  73.6900925
  53.7871891  18.0177614  73.9558501  54.0723401  16.9535206  72.9176017
  77.3595953  20.5644101  70.3576187  76.6059661  19.9951499  70.2020191
  77.4943494  20.5306766  71.3046822  62.7494581  25.4357503  66.0330906
  62.6140255  26.2809039  66.4615754  63.2904393  25.6376781  65.2696840
  59.2361920  11.5149083  82.6945261  58.8428866  10.9615282  83.3692906
  60.0528061  11.8259662  83.0851779  56.2023978  22.9532942  66.6058831
  56.7148499  23.7476192  66.7564396  56.8546691  22.2559232  66.5392433
  58.0118863  26.0698698  68.6881584  58.1885491  26.9916662  68.5002568
  58.8075696  25.7557117  69.1175964  62.1529881  12.9306962  80.2865518
  62.8939595  13.5314116  80.2069980  62.3847804  12.1884600  79.7283561
  57.2971219  18.1163330  78.5643748  57.1824734  17.2148587  78.8650847
  56.4415737  18.3627026  78.2128564  64.3763057  26.0581070  80.1631248
  63.9326911  25.2717449  79.8452153  65.0380271  26.2460220  79.4975139
  66.4744295  26.3383870  78.1912650  66.4562770  27.1592751  77.6992919
  67.3964215  26.2137945  78.4162791  66.0987044   8.9588065  74.5629800
  65.7551314   9.8489707  74.4868910  66.4666007   8.7689723  73.6999385
  54.1672895  21.2821596  67.3818402  55.0048117  21.6918604  67.1652110
  54.3451162  20.3421038  67.3518596  66.0637327  18.9496676  63.0702235
  65.5483950  19.7201281  63.3090622  65.7914635  18.2761813  63.6935296
  63.6484438  13.7946377  68.1287473  62.7926034  13.4053228  67.9493112
  64.0611390  13.8738338  67.2687259  65.1783585  11.3292721  72.5279033
  64.6748380  11.2922856  71.7146838  65.4714191  12.2385463  72.5875690
  61.4226470  11.4131450  71.5345215  62.2879467  11.2174259  71.1751104
  61.4903979  11.1841802  72.4614571  71.0371601  21.7029031  65.0055408
  70.2601044  21.3640191  64.5610570  71.7163082  21.7081654  64.3310373
  65.8523630  16.8223769  64.8962016  65.5473766  17.1369918  65.7472159
  66.8054072  16.9005188  64.9389349  64.2970062  22.9813992  66.5454970
  63.7691423  22.2466751  66.2328207  63.7957565  23.7588668  66.2994938
  69.2762908  21.1763012  71.6622016  68.6186582  21.8662274  71.7502145
  70.0803307  21.5659444  72.0056003  59.0288789  13.6433658  68.9061581
  59.6032541  13.4208840  68.1734774  59.6159772  13.7122353  69.6590183
  68.0868367  19.5307385  69.7125958  68.6000248  20.1637377  70.2147668
  68.7369591  18.9308581  69.3469318  59.3558377  15.6738119  62.9257467
  58.5195689  16.0112806  63.2466741  59.2163146  15.5387099  61.9884604
  61.3311457  10.5174907  67.6336651  60.6775870  10.2023924  67.0093266
  61.2891931   9.8950648  68.3596474  62.4422662  20.7994202  59.5489943
  61.5349724  20.5683456  59.7481092  62.9393694  20.0031821  59.7363925
  64.5649198  17.0056841  71.9584299  63.6471759  17.2271788  71.8005987
  64.9809341  17.0803151  71.0996006  65.3484245  18.4048256  67.0886979
  66.0956064  18.9169654  66.7794101  65.6175835  18.0832309  67.9491372
  63.6210896  20.9006797  64.0713933  62.7122115  20.6165830  64.1686403
  63.6505979  21.3205876  63.2117240  68.8530163  24.5113387  67.8405101
  68.3992490  23.6704296  67.8970291  68.2224130  25.1474785  68.1779881
  67.7963082  15.4405373  69.0705768  67.0585839  14.9282759  69.4016011
  68.0489856  15.0005754  68.2589045  67.8974710   8.2181625  69.6647537
  68.2033587   7.3578988  69.3773452  68.6227315   8.8099245  69.4646531
  54.1899066  18.6212311  68.0529135  53.9923466  18.0281672  67.3280202
  53.6345730  18.3164521  68.7705074  63.3186983  22.4415541  61.4102012
  62.8806413  21.7251400  60.9507649  64.0597424  22.6691656  60.8487103
  60.1088149  17.1312477  67.9314107  59.2956015  17.4306648  68.3379299
  60.6047144  16.7368166  68.6488590  65.7062361  17.5954302  76.7629001
  66.0611749  17.8225775  77.6223467  66.3534492  17.9272679  76.1406256
  71.4360098  20.7172738  67.4678330  71.2977997  20.9074334  66.5399519
  71.0796317  21.4792121  67.9246381  59.6002224  14.7030833  73.5475342
  60.2401604  14.5619592  72.8498306  58.7679755  14.4165346  73.1713944
  71.4629478  22.7849265  72.4789602  71.8965984  22.6924554  73.3272656
  72.1761058  22.7606765  71.8409618  60.3762528  24.0033263  69.6610335
  61.1703127  23.5083583  69.4592910  59.6654221  23.4751126  69.2978040
  56.6845292  18.1476345  65.7370087  55.7542880  18.0860801  65.9540050
  56.7802764  17.6252298  64.9406729  56.6030841  14.6731158  68.3248329
  56.8637658  15.5876491  68.2157490  57.4248013  14.2055600  68.4744942
  58.0755766  16.0868915  75.4947154  58.7478819  15.8786277  74.8459802
  57.2485553  15.8891001  75.0552386  72.3245027  22.8272965  75.0122487
  72.5180917  23.7318776  75.2581762  72.2245645  22.3680384  75.8461072
  63.9781338  12.7130856  77.5112814  63.3309253  13.4120806  77.4177291
  64.7482353  13.1467000  77.8789063  67.3860136  22.9779708  80.5863368
  67.2345642  22.7490260  79.6693451  67.3764815  23.9350310  80.5994713
  64.1545472  20.5511621  75.5709634  65.0837532  20.7022780  75.3978601
  63.7336502  20.6395642  74.7158281  58.4783263  19.3611518  76.2549591
  58.3403061  18.6291757  76.8561130  59.3888187  19.2720418  75.9733778
  67.4398211  21.2999922  61.0034069  66.8227382  20.5746750  60.9067122
  66.9714699  22.0609283  60.6601144  61.1065564  19.0731477  75.7433270
  61.8165182  18.4324670  75.7019889  61.0634872  19.3244372  76.6659451
  69.0952343  26.0098831  78.6639850  69.0364889  25.3258051  77.9970433
  69.4971861  26.7517821  78.2120476  59.8194498  16.0596695  77.5628910
  59.2831855  15.6087434  78.2150506  59.2311206  16.1942604  76.8199374
  59.2296757  15.5185347  60.1255374  58.3526223  15.3974147  59.7617620
  59.7054510  14.7271425  59.8734262  69.0969750  23.9738415  76.8953829
  68.2096529  23.6364336  77.0180228  69.6668301  23.2421446  77.1322595
  50.7498897  20.3062506  70.2196881  51.4369937  19.9924236  69.6317896
  50.5947026  21.2103871  69.9464132  55.5533619  15.1952703  74.6481904
  55.4691808  14.5878372  73.9132314  54.7316326  15.6861721  74.6491401
  62.4160683  27.8711637  67.3717894  61.6328205  28.4133317  67.4656119
  63.1153428  28.3885617  67.7712135  65.7257333  13.6806266  70.0152099
  66.2226033  12.9276229  69.6953170  64.9544314  13.7170583  69.4495309
  73.5787090  19.3846632  71.6570391  73.5676967  20.2671347  71.2864324
  72.7104470  19.0318183  71.4624928  66.8087114  22.4377954  67.5890523
  65.8743392  22.5579416  67.4195227  66.9863782  21.5350420  67.3250533
  62.3092302  15.8223649  69.7423784  61.9390089  15.2694690  70.4304690
  62.8051394  15.2181783  69.1898784  70.1959665  18.2795273  68.1240557
  70.6620117  19.1123265  68.0500860  70.6467166  17.8140255  68.8285815
  68.2635896  24.6239094  65.1226709  68.5395740  24.5095689  66.0320583
  67.3940395  24.2256579  65.0838882  68.1676328  10.6475860  72.1631458
  67.2539408  10.8780087  72.3313665  68.5969429  10.7314304  73.0145491
  67.9382786  18.8365752  74.6631352  67.2854237  19.0841659  74.0083805
  68.3163166  18.0229890  74.3293830  65.2332126  27.7993630  66.0274571
  65.7619892  27.2886085  65.4144733  65.4960345  27.4836160  66.8920104
  63.9870359  19.5785563  81.1497389  63.3110996  19.4779692  81.8199765
  64.8097993  19.4224777  81.6133387  55.7349218  25.8157500  73.7709905
  56.3202655  25.0701187  73.9037809  55.5374057  26.1261456  74.6546569
  58.5887874  28.8508747  68.7872347  57.9198249  29.3354875  68.3036387
  58.4500743  29.0977967  69.7015726  50.3266873  18.3863100  72.4914348
  50.3650973  17.8526690  73.2851466  49.8207166  17.8598305  71.8725325
  57.7057635  13.2327640  75.9876890  57.7698962  14.0942471  75.5754288
  57.6424756  12.6201642  75.2549249  57.1809908  15.3050773  79.6349924
  57.8081947  14.9227850  80.2487449  56.3237827  15.0864975  80.0005617
  67.5804016  25.7113748  81.2403660  68.1243920  26.3243706  80.7458615
  66.9990861  26.2693326  81.7570673  53.9575451  17.1127202  65.5668279
  54.2528892  16.2037880  65.5135333  53.0563486  17.0914941  65.2449282
  57.4869698  15.1883198  71.5495828  56.7656283  15.8019166  71.4103301
  58.2762953  15.7240963  71.4712474  60.2896011  12.5237625  77.8236480
  60.8130413  12.7699921  78.5862789  60.0708344  13.3557660  77.4039617
  55.6863292  14.7941300  65.6907604  55.3575998  13.9138678  65.5082710
  56.0402663  14.7388968  66.5783994  58.8005115  15.0814269  66.0583082
  59.1401188  15.6100191  65.3361690  59.2477236  15.4194675  66.8341649
  61.4948556  13.4651320  75.5086150  61.1545377  12.6659133  75.9106830
  60.7887563  13.7653031  74.9362983  62.1465028  10.5500632  73.9613473
  62.9691097  10.0761111  73.8392363  62.3903092  11.3291116  74.4612159
  60.7873263  13.5788891  64.2576375  61.5081625  13.9570144  63.7540092
  60.1638567  14.2977768  64.3611353  64.9304385  14.2834040  65.1934707
  65.1468000  15.1658678  64.8923535  64.4498453  13.8920253  64.4640349
  59.6703607  17.2419753  71.7705452  59.5248188  17.5560056  72.6629733
  59.1928810  17.8604653  71.2176350  61.5299990  14.2322301  71.8186341
  61.5161558  13.3363394  71.4818639  62.2472418  14.2392965  72.4524627
  63.3826120  14.6659641  73.8639469  63.1243898  15.5876712  73.8623799
  62.8511161  14.2690076  74.5539933  68.3272309  27.7710428  66.6429554
  68.5009187  27.2056851  65.8903407  68.8201200  28.5711323  66.4609044
  54.1449269  19.7825098  74.7093113  53.6002737  20.5584905  74.8413387
  55.0228619  20.1295902  74.5512234  60.9336886  13.1136681  67.0873911
  61.0552797  12.1853328  67.2864799  60.6438928  13.1275367  66.1752227
  63.8028076  10.7991592  70.2240631  63.8249773  10.8630925  69.2692611
  64.2196135   9.9596100  70.4181137  74.1811700  20.5346851  68.2619854
  74.6242846  19.7854177  67.8638977  73.3038211  20.5256988  67.8793586
  69.3147482  27.0877193  63.7426452  70.0098386  27.7083886  63.9613767
  69.6570632  26.2372544  64.0178830  54.9315291  18.9094994  77.6023270
  54.1897027  19.0577629  78.1887900  54.6108035  19.1703259  76.7390019
  71.2138905  24.5376898  65.2713783  71.7390229  24.8764171  64.5463103
  71.1261257  23.6023914  65.0876918  55.3771905  26.7960422  69.6333664
  56.2029924  26.4964194  69.2532308  55.0265957  26.0268045  70.0823453
  60.3453438  26.1486891  71.7031338  59.7233447  25.4857596  71.4033566
  61.0158305  26.1748023  71.0204986  53.5780510  24.7146749  70.5922598
  52.7412418  24.2868923  70.4106599  53.5504155  24.9079192  71.5293389
  60.4177965  14.6268679  81.2963844  60.4666121  15.5030802  80.9141614
  60.9600479  14.0846072  80.7235487  70.9032811  25.1709802  80.5764981
  70.1128355  25.1533941  80.0369480  70.6666165  25.7098096  81.3314018
  71.0230686  22.0202268  77.8897710  71.0728691  21.8552276  78.8313232
  70.9144609  21.1529527  77.4995590  59.9066945  24.6990814  65.1789799
  60.0555065  25.3826278  64.5256471  60.7133388  24.6795904  65.6939254
  68.3134448  18.0033196  79.2057016  69.2144311  17.8639661  78.9141014
  68.3882423  18.1687651  80.1455194  62.6477254  15.3800051  78.0510203
  61.7780563  15.6733617  77.7792791  62.8836734  15.9640496  78.7717466
  72.5248883  24.4399210  78.1339731  72.2333691  24.8029190  78.9703192
  71.9121014  23.7266218  77.9553063  73.7244565  22.0052090  70.6542301
  74.5591456  22.4441894  70.8179862  73.8603694  21.5290743  69.8350547
  70.7736071  19.5631825  76.6019789  71.2490193  19.7559471  75.7938641
  69.8501636  19.6191010  76.3563173  57.6619578  20.7255992  66.1850867
  57.4165620  19.8218322  66.3831078  57.8315492  20.7273142  65.2430345
  65.3516287  11.5979668  75.5675623  65.8698231  12.3340695  75.2422112
  64.9971420  11.9043661  76.4022382  56.9315225  16.4584349  63.6837029
  56.2384470  16.5328704  63.0277065  56.6866977  15.6944693  64.2058546
  65.6028882   8.0179951  71.0876520  65.8830635   7.3503140  71.7136946
  66.3879489   8.2109046  70.5751183  63.4062350  27.1938945  62.6501546
  62.8336317  27.8129132  62.1972018  63.9795144  27.7438306  63.1841468
  69.4737740  16.4397585  74.8348095  70.4255163  16.5395682  74.8560319
  69.3041190  15.6475853  75.3446179  67.4952119  13.5253168  75.0207496
  66.9002052  13.8058181  74.3253984  67.2101816  14.0147069  75.7924237
  66.6259610  27.4776095  63.7810128  67.5590283  27.4121656  63.9843004
  66.5382823  28.3132361  63.3224661  69.2547627  26.7941965  60.7414076
  69.1761258  26.4601829  61.6349834  70.0757293  27.2863733  60.7405548
  71.9525818  19.6603704  73.9490394  71.9202138  18.7219705  74.1350078
  72.5626441  19.7387741  73.2156219  63.7909149  18.5299757  59.9917598
  64.7368253  18.4005965  60.0606016  63.4123394  17.7914419  60.4687027
  72.1020306  16.4514748  73.9948678  71.5859355  15.6673204  73.8078606
  72.9860255  16.1233464  74.1595197  69.7631033  10.1955763  69.9544490
  69.5655854   9.8870851  70.8387822  70.3730739  10.9217402  70.0842420
  77.7702368  20.7219711  73.0896431  78.5005756  20.4604999  73.6504135
  77.1609313  19.9848433  73.1298499  75.8517665  18.8627574  73.6870882
  75.1250828  18.7283539  73.0787374  75.4364952  19.1704402  74.4927600
  63.6747841  22.5817503  81.4518255  64.5950851  22.7596102  81.6458302
  63.6397424  21.6373549  81.2997955  61.9752066  16.4549734  59.9272484
  61.0683521  16.1582846  60.0035197  62.2528047  16.1579552  59.0606770
  52.8930006  17.7756097  70.3771530  52.5732791  16.9221405  70.0845904
  52.3463434  17.9904675  71.1329497  56.6709914  20.4918538  74.0941037
  56.8895923  21.4235646  74.1129070  57.0835688  20.1326512  74.8795840
  63.5914132  10.9986623  66.0816725  62.7814860  10.6533708  66.4571971
  64.2798548  10.6894167  66.6704337  65.5204680  10.0764670  67.7041022
  66.0735718  10.4960124  68.3631045  65.7574766   9.1500418  67.7463978
  61.5437779  16.0651744  83.4843786  61.4434506  17.0146101  83.4155877
  61.3259321  15.7369983  82.6119856  60.7450850  13.3136669  60.0684463
  61.6070014  13.6391567  60.3280280  60.9301195  12.5268165  59.5557529
  52.7618266  21.3959009  72.3464652  52.0681738  20.9812961  71.8334606
  53.5091257  21.4379545  71.7498071  68.8983487  12.1865195  67.2119686
  68.3182156  12.8449999  66.8297738  68.6319420  11.3642540  66.8007103
  67.3487053  11.5870253  69.4141006  67.8486832  11.6986788  68.6055325
  67.9922661  11.2831306  70.0541815  61.4069049  19.4948883  82.3008847
  60.9236131  20.2949243  82.5072736  61.4929988  19.5056828  81.3476291
  54.6755009  21.3277262  70.2230667  54.6525697  21.4264950  69.2712550
  54.9855645  22.1742413  70.5447833  57.3342387  23.3853417  74.3377281
  58.2885640  23.3537360  74.2707213  57.1354910  22.9244041  75.1527507
  67.6808365  14.3465286  66.2676034  66.7934220  14.6314936  66.0496229
  68.0962354  14.1859049  65.4203311  71.0322901  14.3711807  69.9830373
  71.8083291  14.8608259  70.2554990  70.3071035  14.7969861  70.4402243
  73.4695460  15.0839426  71.0404314  74.0639950  14.8435162  70.3297622
  73.5422043  14.3646556  71.6677850  66.8251578  24.1109960  60.3624054
  67.5287428  24.3159963  60.9781710  66.1014227  24.6786722  60.6273138
  67.6549389  19.8619822  66.4826324  67.5984590  20.3188373  65.6433957
  68.2077731  19.1010506  66.3049167  71.4654195  15.6509554  67.3076444
  71.2091129  15.2506189  68.1384651  70.8407063  16.3653347  67.1826583
  75.7766532  18.3905627  69.8147735  75.2166090  18.4598816  70.5879297
  75.1710036  18.2146611  69.0947231  68.7338276  24.5492490  62.4122514
  69.5683880  24.1173688  62.2299989  68.5722619  24.3774503  63.3399409
  68.3884168  21.0524603  63.7778853  68.3332972  20.8868874  62.8367298
  67.7630223  21.7600636  63.9341043  53.1776683  16.2892667  77.6040276
  53.8235547  15.7791621  78.0927501  52.9693834  17.0261349  78.1783701
  65.7030075  23.3573515  83.1032416  66.5721235  23.5314167  82.7419051
  65.2236827  24.1767932  82.9808146  61.6980293  10.5532712  63.3564172
  61.6858963  11.4974552  63.5132443  62.5903715  10.3702857  63.0623633
  65.5132413   7.1475489  67.6110109  64.7464809   6.5933975  67.7566791
  65.9243118   7.2197357  68.4724260  57.5174174  13.4360284  81.7015290
  58.3805635  13.0797089  81.9118614  56.9439585  13.0974179  82.3890694
  79.8397667  26.4410402  74.9458486  79.5080992  27.3105813  74.7219701
  79.2443280  26.1246686  75.6252516  73.5753853  30.1805969  62.6788568
  73.7428256  31.0486205  63.0459039  73.3851022  30.3433251  61.7549858
  79.7326330  31.1605488  72.0251836  78.8243207  31.0920896  71.7310597
  79.6813926  31.6377433  72.8533662  73.8067196  32.5795134  79.9686733
  73.0300530  33.1389054  79.9589598  74.4457759  33.0651917  80.4901604
  81.5987977  29.3621926  73.8029710  80.9562357  29.6554460  73.1569505
  81.0942905  29.2474847  74.6082907  79.2528140  33.1085100  64.4915569
  80.1645996  33.3412486  64.3163267  78.7437787  33.6922144  63.9290648
  77.0399423  30.1286703  77.1591592  76.7960355  30.8828763  76.6225868
  77.3159354  30.5072050  77.9938840  76.5964115  29.2843136  72.7405430
  75.7348594  29.5824389  73.0322168  76.6226550  29.5013534  71.8086463
  88.1989707  35.8936019  70.3576187  87.4453415  35.3243417  70.2020191
  88.3337248  35.8598683  71.3046822  70.0755675  26.8441001  82.6945261
  69.6822620  26.2907200  83.3692906  70.8921815  27.1551579  83.0851779
  72.9923636  28.2598880  80.2865518  73.7333349  28.8606033  80.2069980
  73.2241559  27.5176518  79.7283561  76.9380799  24.2879983  74.5629800
  76.5945068  25.1781625  74.4868910  77.3059761  24.0981641  73.6999385
  76.9031081  34.2788594  63.0702235  76.3877705  35.0493199  63.3090622
  76.6308390  33.6053730  63.6935296  74.4878192  29.1238295  68.1287473
  73.6319789  28.7345145  67.9493112  74.9005144  29.2030256  67.2687259
  76.0177339  26.6584638  72.5279033  75.5142135  26.6214773  71.7146838
  76.3107946  27.5677381  72.5875690  72.2620225  26.7423368  71.5345215
  73.1273222  26.5466177  71.1751104  72.3297734  26.5133720  72.4614571
  81.8765355  37.0320949  65.0055408  81.0994798  36.6932108  64.5610570
  82.5556836  37.0373572  64.3310373  76.6917385  32.1515686  64.8962016
  76.3867520  32.4661835  65.7472159  77.6447827  32.2297106  64.9389349
  69.8682544  28.9725576  68.9061581  70.4426296  28.7500757  68.1734774
  70.4553526  29.0414270  69.6590183  70.1952131  31.0030037  62.9257467
  69.3589443  31.3404723  63.2466741  70.0556901  30.8679017  61.9884604
  72.1705212  25.8466825  67.6336651  71.5169624  25.5315842  67.0093266
  72.1285686  25.2242565  68.3596474  73.2816417  36.1286120  59.5489943
  72.3743478  35.8975373  59.7481092  73.7787449  35.3323739  59.7363925
  76.1878000  33.7340174  67.0886979  76.9349819  34.2461571  66.7794101
  76.4569589  33.4124227  67.9491372  78.6356837  30.7697290  69.0705768
  77.8979594  30.2574676  69.4016011  78.8883611  30.3297672  68.2589045
  78.7368464  23.5473542  69.6647537  79.0427341  22.6870906  69.3773452
  79.4621069  24.1391162  69.4646531  70.9481904  32.4604395  67.9314107
  70.1349769  32.7598566  68.3379299  71.4440898  32.0660084  68.6488590
  82.2753853  36.0464655  67.4678330  82.1371751  36.2366251  66.5399519
  81.9190071  36.8084038  67.9246381  67.4424595  30.0023076  68.3248329
  67.7031412  30.9168409  68.2157490  68.2641767  29.5347518  68.4744942
  74.8175092  28.0422774  77.5112814  74.1703008  28.7412723  77.4177291
  75.5876108  28.4758918  77.8789063  78.2791965  36.6291840  61.0034069
  77.6621136  35.9038668  60.9067122  77.8108454  37.3901200  60.6601144
  70.0690511  30.8477264  60.1255374  69.1919978  30.7266065  59.7617620
  70.5448264  30.0563343  59.8734262  76.5651087  29.0098184  70.0152099
  77.0619787  28.2568146  69.6953170  75.7938069  29.0462501  69.4495309
  81.0353420  33.6087191  68.1240557  81.5013872  34.4415182  68.0500860
  81.4860920  33.1432172  68.8285815  79.0070082  25.9767778  72.1631458
  78.0933162  26.2072004  72.3313665  79.4363184  26.0606222  73.0145491
  74.8264114  34.9077481  81.1497389  74.1504751  34.8071610  81.8199765
  75.6491748  34.7516694  81.6133387  71.1289766  27.8529543  77.8236480
  71.6524168  28.0991839  78.5862789  70.9102099  28.6849577  77.4039617
  66.5257047  30.1233217  65.6907604  66.1969753  29.2430596  65.5082710
  66.8796417  30.0680886  66.5783994  69.6398870  30.4106187  66.0583082
  69.9794942  30.9392108  65.3361690  70.0870990  30.7486593  66.8341649
  72.3342311  28.7943238  75.5086150  71.9939131  27.9951051  75.9106830
  71.6281317  29.0944949  74.9362983  72.9858783  25.8792550  73.9613473
  73.8084852  25.4053028  73.8392363  73.2296846  26.6583034  74.4612159
  71.6267017  28.9080809  64.2576375  72.3475380  29.2862061  63.7540092
  71.0032321  29.6269685  64.3611353  75.7698140  29.6125958  65.1934707
  75.9861754  30.4950595  64.8923535  75.2892207  29.2212171  64.4640349
  72.3693744  29.5614219  71.8186341  72.3555313  28.6655312  71.4818639
  73.0866172  29.5684883  72.4524627  71.7730640  28.4428599  67.0873911
  71.8946551  27.5145245  67.2864799  71.4832682  28.4567285  66.1752227
  74.6421831  26.1283509  70.2240631  74.6643527  26.1922843  69.2692611
  75.0589890  25.2888018  70.4181137  85.0205455  35.8638769  68.2619854
  85.4636601  35.1146094  67.8638977  84.1431965  35.8548905  67.8793586
  82.0532659  39.8668816  65.2713783  82.5783983  40.2056089  64.5463103
  81.9655012  38.9315831  65.0876918  71.2571720  29.9560596  81.2963844
  71.3059875  30.8322719  80.9141614  71.7994234  29.4137989  80.7235487
  79.1528203  33.3325114  79.2057016  80.0538066  33.1931579  78.9141014
  79.2276177  33.4979569  80.1455194  73.4871008  30.7091969  78.0510203
  72.6174318  31.0025535  77.7792791  73.7230488  31.2932414  78.7717466
  76.1910042  26.9271586  75.5675623  76.7091986  27.6632613  75.2422112
  75.8365175  27.2335579  76.4022382  67.7708980  31.7876267  63.6837029
  67.0778225  31.8620622  63.0277065  67.5260732  31.0236611  64.2058546
  76.4422636  23.3471868  71.0876520  76.7224390  22.6795057  71.7136946
  77.2273243  23.5400964  70.5751183  80.3131494  31.7689502  74.8348095
  81.2648917  31.8687600  74.8560319  80.1434945  30.9767771  75.3446179
  78.3345874  28.8545085  75.0207496  77.7395806  29.1350098  74.3253984
  78.0495571  29.3438986  75.7924237  80.0941381  42.1233883  60.7414076
  80.0155013  41.7893746  61.6349834  80.9151048  42.6155651  60.7405548
  74.6302903  33.8591675  59.9917598  75.5762008  33.7297883  60.0606016
  74.2517148  33.1206337  60.4687027  80.6024788  25.5247681  69.9544490
  80.4049609  25.2162769  70.8387822  81.2124493  26.2509320  70.0842420
  88.6096122  36.0511629  73.0896431  89.3399511  35.7896917  73.6504135
  88.0003068  35.3140351  73.1298499  86.6911419  34.1919491  73.6870882
  85.9644583  34.0575456  73.0787374  86.2758706  34.4996320  74.4927600
  72.8145820  31.7841651  59.9272484  71.9077276  31.4874764  60.0035197
  73.0921801  31.4871469  59.0606770  74.4307886  26.3278541  66.0816725
  73.6208614  25.9825626  66.4571971  75.1192303  26.0186085  66.6704337
  76.3598434  25.4056588  67.7041022  76.9129473  25.8252041  68.3631045
  76.5968521  24.4792336  67.7463978  72.3831534  31.3943661  83.4843786
  72.2828260  32.3438018  83.4155877  72.1653076  31.0661900  82.6119856
  71.5844605  28.6428587  60.0684463  72.4463769  28.9683485  60.3280280
  71.7694949  27.8560082  59.5557529  79.7377241  27.5157113  67.2119686
  79.1575910  28.1741917  66.8297738  79.4713174  26.6934458  66.8007103
  78.1880808  26.9162171  69.4141006  78.6880586  27.0278705  68.6055325
  78.8316416  26.6123224  70.0541815  78.5202119  29.6757203  66.2676034
  77.6327974  29.9606854  66.0496229  78.9356108  29.5150967  65.4203311
  81.8716656  29.7003724  69.9830373  82.6477046  30.1900177  70.2554990
  81.1464790  30.1261779  70.4402243  84.3089214  30.4131344  71.0404314
  84.9033705  30.1727080  70.3297622  84.3815798  29.6938474  71.6677850
  77.6645333  39.4401878  60.3624054  78.3681183  39.6451881  60.9781710
  76.9407982  40.0078640  60.6273138  78.4943143  35.1911739  66.4826324
  78.4378345  35.6480291  65.6433957  79.0471486  34.4302424  66.3049167
  82.3047949  30.9801471  67.3076444  82.0484883  30.5798107  68.1384651
  81.6800817  31.6945265  67.1826583  86.6160287  33.7197544  69.8147735
  86.0559845  33.7890734  70.5879297  86.0103790  33.5438529  69.0947231
  79.5732030  39.8784407  62.4122514  80.4077634  39.4465606  62.2299989
  79.4116373  39.7066421  63.3399409  79.2277922  36.3816521  63.7778853
  79.1726726  36.2160792  62.8367298  78.6023978  37.0892553  63.9341043
  72.5374048  25.8824630  63.3564172  72.5252718  26.8266470  63.5132443
  73.4297470  25.6994775  63.0623633  76.3526167  22.4767406  67.6110109
  75.5858563  21.9225893  67.7566791  76.7636872  22.5489275  68.4724260
  87.7557574  48.1205512  69.5830899  88.5420663  47.7024935  69.2321316
  88.0196278  49.0251604  69.7512547  93.1566001  48.0580745  70.4863877
  93.8891173  47.4879962  70.7201707  92.4005357  47.6702346  70.9270383
  84.7742121  50.4807987  67.6827220  84.4100328  49.9538608  68.3940141
  85.6309237  50.0906456  67.5093705  90.6791421  41.7702320  74.9458486
  90.3474746  42.6397731  74.7219701  90.0837035  41.4538604  75.6252516
  84.4147608  45.5097887  62.6788568  84.5822010  46.3778123  63.0459039
  84.2244777  45.6725168  61.7549858  90.5720085  46.4897406  72.0251836
  89.6636962  46.4212814  71.7310597  90.5207680  46.9669351  72.8533662
  84.3936829  47.9655544  63.6635235  84.2736454  48.4112595  64.5020716
  83.6989417  48.3140862  63.1048773  92.4381731  44.6913844  73.8029710
  91.7956111  44.9846377  73.1569505  91.9336660  44.5766764  74.6082907
  90.0921895  48.4377017  64.4915569  91.0039751  48.6704404  64.3163267
  89.5831542  49.0214062  63.9290648  92.5780709  54.3557274  69.2373515
  91.8931747  54.7356175  68.6870548  92.6624558  54.9652600  69.9705462
  87.4357869  44.6135053  72.7405430  86.5742349  44.9116307  73.0322168
  87.4620304  44.8305452  71.8086463  84.2519439  53.1577244  69.1479236
  84.7157784  53.4364947  68.3583858  83.9876237  52.2560688  68.9652327
  99.0383462  51.2227937  70.3576187  98.2847170  50.6535335  70.2020191
  99.1731003  51.1890601  71.3046822  86.0550566  56.7164905  80.1631248
  85.6114420  55.9301284  79.8452153  86.7167780  56.9044056  79.4975139
  88.1531804  56.9967705  78.1912650  88.1350279  57.8176586  77.6992919
  89.0751724  56.8721780  78.4162791  87.7774553  39.6171901  74.5629800
  87.4338823  40.5073542  74.4868910  88.1453516  39.4273558  73.6999385
  87.7424836  49.6080512  63.0702235  87.2271459  50.3785116  63.3090622
  87.4702144  48.9345648  63.6935296  92.7159110  52.3612866  65.0055408
  91.9388553  52.0224026  64.5610570  93.3950591  52.3665490  64.3310373
  87.5311139  47.4807604  64.8962016  87.2261275  47.7953753  65.7472159
  88.4841581  47.5589024  64.9389349  89.7655876  50.1891220  69.7125958
  90.2787757  50.8221212  70.2147668  90.4157100  49.5892416  69.3469318
  81.0345886  46.3321955  62.9257467  80.1983198  46.6696641  63.2466741
  80.8950655  46.1970934  61.9884604  87.0271754  49.0632092  67.0886979
  87.7743573  49.5753489  66.7794101  87.2963344  48.7416144  67.9491372
  90.5317672  55.1697222  67.8405101  90.0779999  54.3288132  67.8970291
  89.9011639  55.8058620  68.1779881  89.4750591  46.0989208  69.0705768
  88.7373348  45.5866594  69.4016011  89.7277365  45.6589590  68.2589045
  89.5762219  38.8765460  69.6647537  89.8821096  38.0162823  69.3773452
  90.3014824  39.4683080  69.4646531  93.1147607  51.3756573  67.4678330
  92.9765506  51.5658169  66.5399519  92.7583826  52.1375956  67.9246381
  89.1185720  51.9583758  61.0034069  88.5014891  51.2330586  60.9067122
  88.6502208  52.7193118  60.6601144  80.9084266  46.1769182  60.1255374
  80.0313732  46.0557983  59.7617620  81.3842019  45.3855260  59.8734262
  95.2574599  50.0430467  71.6570391  95.2464476  50.9255183  71.2864324
  94.3891979  49.6902018  71.4624928  88.4874623  53.0961789  67.5890523
  87.5530901  53.2163251  67.4195227  88.6651291  52.1934256  67.3250533
  91.8747174  48.9379108  68.1240557  92.3407626  49.7707100  68.0500860
  92.3254675  48.4724090  68.8285815  89.8463837  41.3059695  72.1631458
  88.9326917  41.5363922  72.3313665  90.2756938  41.3898139  73.0145491
  89.2591525  56.3697583  81.2403660  89.8031429  56.9827542  80.7458615
  88.6778370  56.9277162  81.7570673  90.2164502  57.9108596  71.2867463
  91.1411049  57.7051458  71.1491914  90.0479805  57.6624997  72.1956804
  82.4660772  44.2372726  64.2576375  83.1869134  44.6153979  63.7540092
  81.8426076  44.9561603  64.3611353  86.6091894  44.9417875  65.1934707
  86.8255509  45.8242513  64.8923535  86.1285962  44.5504089  64.4640349
  95.8599209  51.1930687  68.2619854  96.3030355  50.4438012  67.8638977
  94.9825720  51.1840823  67.8793586  90.9934991  57.7461028  63.7426452
  91.6885895  58.3667721  63.9613767  91.3358141  56.8956379  64.0178830
  92.8926414  55.1960734  65.2713783  93.4177738  55.5348006  64.5463103
  92.8048766  54.2607749  65.0876918  95.4032074  52.6635925  70.6542301
  96.2378965  53.1025729  70.8179862  95.5391203  52.1874578  69.8350547
  87.0303796  42.2563503  75.5675623  87.5485740  42.9924530  75.2422112
  86.6758929  42.5627497  76.4022382  87.2816391  38.6763786  71.0876520
  87.5618144  38.0086975  71.7136946  88.0666998  38.8692882  70.5751183
  89.1739628  44.1837003  75.0207496  88.5789561  44.4642016  74.3253984
  88.8889325  44.6730904  75.7924237  90.9335136  57.4525800  60.7414076
  90.8548767  57.1185664  61.6349834  91.7544802  57.9447568  60.7405548
  93.6313327  50.3187540  73.9490394  93.5989647  49.3803540  74.1350078
  94.2413950  50.3971576  73.2156219  85.4696658  49.1883593  59.9917598
  86.4155762  49.0589801  60.0606016  85.0910903  48.4498255  60.4687027
  93.7807815  47.1098583  73.9948678  93.2646864  46.3257040  73.8078606
  94.6647764  46.7817300  74.1595197  91.4418542  40.8539599  69.9544490
  91.2443363  40.5454687  70.8387822  92.0518248  41.5801238  70.0842420
  99.4489877  51.3803546  73.0896431 100.1793265  51.1188835  73.6504135
  98.8396822  50.6432268  73.1298499  97.5305174  49.5211409  73.6870882
  96.8038337  49.3867374  73.0787374  97.1152461  49.8288238  74.4927600
  83.6539575  47.1133569  59.9272484  82.7471030  46.8166682  60.0035197
  83.9315556  46.8163387  59.0606770  85.2701640  41.6570459  66.0816725
  84.4602369  41.3117544  66.4571971  85.9586057  41.3478002  66.6704337
  87.1992189  40.7348506  67.7041022  87.7523227  41.1543959  68.3631045
  87.4362275  39.8084254  67.7463978  82.4238359  43.9720504  60.0684463
  83.2857523  44.2975403  60.3280280  82.6088704  43.1852000  59.5557529
  90.5770996  42.8449031  67.2119686  89.9969665  43.5033835  66.8297738
  90.3106929  42.0226375  66.8007103  89.0274562  42.2454088  69.4141006
  89.5274341  42.3570623  68.6055325  89.6710170  41.9415141  70.0541815
  89.3595874  45.0049121  66.2676034  88.4721729  45.2898772  66.0496229
  89.7749863  44.8442884  65.4203311  92.7110410  45.0295642  69.9830373
  93.4870800  45.5192095  70.2554990  91.9858544  45.4553696  70.4402243
  95.1482969  45.7423261  71.0404314  95.7427459  45.5018997  70.3297622
  95.2209552  45.0230392  71.6677850  88.5039087  54.7693796  60.3624054
  89.2074937  54.9743798  60.9781710  87.7801736  55.3370558  60.6273138
  89.3336898  50.5203657  66.4826324  89.2772099  50.9772208  65.6433957
  89.8865240  49.7594342  66.3049167  93.1441704  46.3093389  67.3076444
  92.8878638  45.9090025  68.1384651  92.5194572  47.0237183  67.1826583
  97.4554041  49.0489462  69.8147735  96.8953599  49.1182651  70.5879297
  96.8497545  48.8730447  69.0947231  90.4125785  55.2076325  62.4122514
  91.2471389  54.7757523  62.2299989  90.2510128  55.0358339  63.3399409
  90.0671677  51.7108438  63.7778853  90.0120481  51.5452710  62.8367298
  89.4417732  52.4184471  63.9341043  83.3767802  41.2116547  63.3564172
  83.3646472  42.1558387  63.5132443  84.2691224  41.0286693  63.0623633
  87.1919922  37.8059324  67.6110109  86.4252318  37.2517811  67.7566791
  87.6030627  37.8781193  68.4724260  99.0410060  65.7245976  72.5077691
  99.6788470  65.6052723  71.8041031  98.9230903  66.6726820  72.5665643
  95.8499766  65.6773404  72.4439216  95.5118278  65.5614469  71.5559750
  96.7189534  65.2764569  72.4240222  91.7086582  67.5308881  68.4336107
  91.1451447  67.4398818  67.6652394  91.5938977  66.7108785  68.9138599
  96.3319549  66.8308256  78.4025421  96.3208190  66.4361054  77.5305925
  96.4940189  66.0974329  78.9959193  89.2551014  69.0260072  71.2720327
  90.0472306  68.6850897  70.8566626  89.4947664  69.1355047  72.1922480
  97.2886141  71.1979848  63.7450571  96.6374120  71.7833929  63.3584585
  98.0830503  71.7286043  63.8045609  91.2141768  68.2868985  64.1437706
  91.9872644  67.7397973  64.0050582  91.5667167  69.1513235  64.3552167
  93.0526810  69.6145368  77.3504605  92.7616676  70.5190999  77.2351271
  93.6883795  69.6561895  78.0648675  93.9783017  66.9922216  73.9405965
  94.5746589  66.7678239  73.2262928  94.0357989  66.2506962  74.5431413
  93.5508046  64.4461652  61.7756156  93.8033566  63.9243173  61.0139619
  92.6132605  64.2827797  61.8782839  98.5951328  63.4497430  69.5830899
  99.3814418  63.0316853  69.2321316  98.8590033  64.3543522  69.7512547
  98.7661406  68.8870280  64.2819556  98.1307239  68.9604907  64.9940460
  98.4358812  69.4763879  63.6038635 103.9959755  63.3872663  70.4863877
 104.7284927  62.8171880  70.7201707 103.2399111  62.9994264  70.9270383
  93.2704334  66.3489758  63.9780531  93.1540592  65.6734661  64.6461615
  93.3806594  65.8622131  63.1612684  95.6135875  65.8099905  67.6827220
  95.2494082  65.2830526  68.3940141  96.4702991  65.4198374  67.5093705
 101.5185176  57.0994237  74.9458486 101.1868501  57.9689648  74.7219701
 100.9230789  56.7830521  75.6252516  95.2541362  60.8389804  62.6788568
  95.4215765  61.7070041  63.0459039  95.0638531  61.0017086  61.7549858
  98.0116695  69.3006783  74.3454399  97.7117418  70.2031822  74.2370206
  97.6667755  69.0338966  75.1975552  91.4629177  65.7520580  70.3791103
  90.5379673  65.6196794  70.5868795  91.7113590  66.5314799  70.8761046
 101.4113839  61.8189323  72.0251836 100.5030716  61.7504732  71.7310597
 101.3601435  62.2961268  72.8533662  95.2330583  63.2947462  63.6635235
  95.1130208  63.7404513  64.5020716  94.5383171  63.6432779  63.1048773
  88.8237988  65.3953854  71.2134892  88.9530369  65.6488333  72.1274304
  88.1435439  65.9881562  70.8939547  92.9937475  76.0651104  67.3125366
  92.9161505  77.0158929  67.3913847  92.3899119  75.7196976  67.9700293
  95.4854705  63.2378969  79.9686733  94.7088039  63.7972889  79.9589598
  96.1245268  63.7235752  80.4901604 103.2775486  60.0205762  73.8029710
 102.6349866  60.3138295  73.1569505 102.7730414  59.9058682  74.6082907
 100.9315649  63.7668935  64.4915569 101.8433505  63.9996322  64.3163267
 100.4225296  64.3505979  63.9290648  93.7401077  66.0464422  79.5304700
  94.4815762  66.5849466  79.2539524  93.0338063  66.6730711  79.6876252
  99.2156417  68.1893563  78.1276862  99.6239773  67.7475973  77.3831494
  98.4933678  67.6146190  78.3811055  99.5385231  68.7494753  71.8829151
  98.9094094  68.9140468  71.1805219  99.1510894  69.1636363  72.6540115
 103.4174463  69.6849191  69.2373515 102.7325502  70.0648093  68.6870548
 103.5018313  70.2944518  69.9705462  98.7186932  60.7870538  77.1591592
  98.4747864  61.5412598  76.6225868  98.9946863  61.1655886  77.9938840
 100.6725395  67.3309150  75.8368858 100.8842290  67.9740910  75.1603239
 100.6255143  66.4971467  75.3690788  98.2751624  59.9426971  72.7405430
  97.4136103  60.2408225  73.0322168  98.3014059  60.1597370  71.8086463
  95.0913193  68.4869162  69.1479236  95.5551539  68.7656865  68.3583858
  94.8269991  67.5852606  68.9652327  91.9837274  68.0340643  72.0858999
  92.5538632  68.4627911  71.4476484  92.5745386  67.7523228  72.7843185
  94.0282079  64.6092314  65.9568801  94.7306123  65.0613358  66.4242727
  93.6962708  63.9676133  66.5848694  92.4762441  63.2004071  80.3320010
  91.8461102  63.8820351  80.5655407  92.3698529  63.0887152  79.3873149
 101.7871223  70.2081106  74.0091215 102.6088667  69.8061293  73.7273897
 101.7833626  70.1049340  74.9607331  89.7222159  63.2320446  68.2169411
  88.9253322  63.3439140  68.7352907  89.4947751  63.5707098  67.3510302
  95.5527826  69.7565149  76.1651926  95.6172259  70.2185556  77.0010098
  94.8438750  69.1262514  76.2934236  86.0545116  63.1206357  73.6900925
  86.3053155  64.0053367  73.9558501  86.5904665  62.9410959  72.9176017
 109.8777216  66.5519854  70.3576187 109.1240924  65.9827252  70.2020191
 110.0124757  66.5182519  71.3046822  95.2675844  71.4233257  66.0330906
  95.1321519  72.2684792  66.4615754  95.8085657  71.6252534  65.2696840
  91.7543184  57.5024836  82.6945261  91.3610129  56.9491035  83.3692906
  92.5709324  57.8135415  83.0851779  88.7205241  68.9408695  66.6058831
  89.2329762  69.7351945  66.7564396  89.3727954  68.2434985  66.5392433
  90.5300126  72.0574451  68.6881584  90.7066754  72.9792416  68.5002568
  91.3256960  71.7432870  69.1175964  89.8152483  64.1039083  78.5643748
  89.7005998  63.2024340  78.8650847  88.9597000  64.3502779  78.2128564
  96.8944320  72.0456823  80.1631248  96.4508175  71.2593202  79.8452153
  97.5561534  72.2335974  79.4975139  91.6531442  73.5752625  74.6891927
  92.2038867  73.4469688  73.9168921  90.8142918  73.8747514  74.3386820
  98.9925558  72.3259623  78.1912650  98.9744034  73.1468504  77.6992919
  99.9145479  72.2013698  78.4162791  95.4498613  69.8403752  79.0336158
  95.9826949  69.0792041  78.8035466  94.9212694  69.5477404  79.7760312
  98.6168308  54.9463818  74.5629800  98.2732577  55.8365460  74.4868910
  98.9847270  54.7565476  73.6999385  86.6854158  67.2697349  67.3818402
  87.5229380  67.6794357  67.1652110  86.8632426  66.3296791  67.3518596
  98.5818590  64.9372429  63.0702235  98.0665214  65.7077034  63.3090622
  98.3095899  64.2637566  63.6935296  96.1665701  59.7822130  68.1287473
  95.3107298  59.3928981  67.9493112  96.5792653  59.8614091  67.2687259
  97.6964848  57.3168474  72.5279033  97.1929644  57.2798609  71.7146838
  97.9895455  58.2261216  72.5875690  93.9407734  57.4007203  71.5345215
  94.8060731  57.2050012  71.1751104  94.0085243  57.1717555  72.4614571
 103.5552864  67.6904784  65.0055408 102.7782307  67.3515944  64.5610570
 104.2344345  67.6957407  64.3310373  98.3704894  62.8099522  64.8962016
  98.0655029  63.1245671  65.7472159  99.3235336  62.8880941  64.9389349
  96.8151325  68.9689745  66.5454970  96.2872687  68.2342504  66.2328207
  96.3138828  69.7464421  66.2994938 101.7944171  67.1638765  71.6622016
 101.1367846  67.8538027  71.7502145 102.5984571  67.5535197  72.0056003
  91.5470053  59.6309411  68.9061581  92.1213805  59.4084593  68.1734774
  92.1341035  59.6998106  69.6590183 100.6049630  65.5183138  69.7125958
 101.1181512  66.1513130  70.2147668 101.2550854  64.9184334  69.3469318
  91.8739640  61.6613872  62.9257467  91.0376952  61.9988559  63.2466741
  91.7344410  61.5262852  61.9884604  93.8492721  56.5050660  67.6336651
  93.1957133  56.1899677  67.0093266  93.8073195  55.8826401  68.3596474
  94.9603926  66.7869955  59.5489943  94.0530987  66.5559209  59.7481092
  95.4574958  65.9907574  59.7363925  97.8672004  75.4967462  62.4686629
  97.1933703  75.7999159  63.0771587  98.2537826  76.2996543  62.1192086
  97.0830461  62.9932594  71.9584299  96.1653022  63.2147541  71.8005987
  97.4990605  63.0678904  71.0996006  97.8665509  64.3924009  67.0886979
  98.6137328  64.9045407  66.7794101  98.1357098  64.0708062  67.9491372
  96.1392159  66.8882550  64.0713933  95.2303378  66.6041583  64.1686403
  96.1687243  67.3081629  63.2117240 101.3711426  70.4989140  67.8405101
 100.9173753  69.6580049  67.8970291 100.7405393  71.1350538  68.1779881
 100.3144346  61.4281126  69.0705768  99.5767103  60.9158512  69.4016011
 100.5671119  60.9881507  68.2589045  99.8144366  72.3365636  68.7754919
 100.1067340  72.8970693  68.0567284 100.3242986  72.6294197  69.5308078
 100.4155973  54.2057378  69.6647537 100.7214850  53.3454741  69.3773452
 101.1408578  54.7974998  69.4646531  94.6877053  64.5011171  70.1723728
  94.7425663  63.5485007  70.0966205  93.8768255  64.6570610  70.6565027
  95.8368247  68.4291294  61.4102012  95.3987677  67.7127153  60.9507649
  96.5778688  68.6567409  60.8487103  92.6269413  63.1188230  67.9314107
  91.8137278  63.4182401  68.3379299  93.1228407  62.7243919  68.6488590
  94.7777991  73.1145987  69.8648372  94.7354170  73.3406834  68.9356904
  95.6940690  72.8809362  70.0134173  98.2243625  63.5830055  76.7629001
  98.5793012  63.8101528  77.6223467  98.8715756  63.9148432  76.1406256
 103.9541362  66.7048491  67.4678330 103.8159260  66.8950087  66.5399519
 103.5977580  67.4667874  67.9246381  92.1183488  60.6906586  73.5475342
  92.7582867  60.5495345  72.8498306  91.2861018  60.4041099  73.1713944
 103.9810741  68.7725018  72.4789602 104.4147248  68.6800307  73.3272656
 104.6942322  68.7482518  71.8409618  92.8943792  69.9909016  69.6610335
  93.6884390  69.4959336  69.4592910  92.1835484  69.4626879  69.2978040
  97.7138636  72.3727112  74.0122702  97.7675658  72.9418048  74.7800418
  96.8453417  72.5428997  73.6476739  89.2026555  64.1352098  65.7370087
  88.2724143  64.0736554  65.9540050  89.2984027  63.6128051  64.9406729
  90.5937029  62.0744668  75.4947154  91.2660083  61.8662030  74.8459802
  89.7666816  61.8766754  75.0552386 104.8426291  68.8148718  75.0122487
 105.0362181  69.7194529  75.2581762 104.7426909  68.3556137  75.8461072
  96.4962601  58.7006609  77.5112814  95.8490517  59.3996559  77.4177291
  97.2663617  59.1342753  77.8789063  99.9041399  68.9655461  80.5863368
  99.7526906  68.7366013  79.6693451  99.8946079  69.9226063  80.5994713
  96.6726736  66.5387374  75.5709634  97.6018796  66.6898534  75.3978601
  96.2517766  66.6271395  74.7158281  95.4715068  70.5638038  73.3408172
  95.3326153  70.1956823  74.2134110  94.6829664  71.0785678  73.1692130
  96.0663220  75.6647135  64.6833708  96.2414975  75.1935178  65.4979331
  95.3796008  76.2912901  64.9114969  97.0220283  69.9419641  70.7297010
  96.6870115  69.9020411  71.6254659  96.5224228  69.2764357  70.2567420
  90.9964527  65.3487271  76.2549591  90.8584325  64.6167510  76.8561130
  91.9069450  65.2596171  75.9733778  99.9579474  67.2875675  61.0034069
  99.3408645  66.5622504  60.9067122  99.4895963  68.0485036  60.6601144
  93.6246827  65.0607230  75.7433270  94.3346446  64.4200423  75.7019889
  93.5816136  65.3120125  76.6659451 101.6133606  71.9974584  78.6639850
 101.5546152  71.3133804  77.9970433 102.0153124  72.7393574  78.2120476
  92.3375761  62.0472448  77.5628910  91.8013118  61.5963187  78.2150506
  91.7492470  62.1818357  76.8199374  90.6324305  78.8136498  71.4573568
  90.8720903  79.4455022  72.1352587  89.7893501  78.4624538  71.7438928
  91.7478020  61.5061100  60.1255374  90.8707487  61.3849900  59.7617620
  92.2235773  60.7147178  59.8734262 101.6151013  69.9614168  76.8953829
 100.7277792  69.6240089  77.0180228 102.1849564  69.2297199  77.1322595
  83.2680160  66.2938259  70.2196881  83.9551200  65.9799989  69.6317896
  83.1128289  67.1979624  69.9464132  95.1452167  74.6215620  73.8615072
  95.0722338  75.4270591  74.3734377  94.7029560  74.8207586  73.0363094
  94.9341946  73.8587390  67.3717894  94.1509468  74.4009070  67.4656119
  95.6334692  74.3761370  67.7712135  98.2438596  59.6682019  70.0152099
  98.7407296  58.9151982  69.6953170  97.4725578  59.7046336  69.4495309
 106.0968354  65.3722385  71.6570391 106.0858230  66.2547100  71.2864324
 105.2285733  65.0193936  71.4624928  97.6050850  74.5202454  76.0173231
  98.3178822  75.1549919  75.9449133  97.1140879  74.6166320  75.2013233
  99.3268377  68.4253707  67.5890523  98.3924656  68.5455169  67.4195227
  99.5045046  67.5226173  67.3250533  94.8273565  61.8099402  69.7423784
  94.4571353  61.2570443  70.4304690  95.3232658  61.2057536  69.1898784
 102.7140928  64.2671026  68.1240557 103.1801381  65.0999018  68.0500860
 103.1648429  63.8016008  68.8285815  92.6562764  72.2696897  76.8378802
  93.3572223  72.9033380  76.9908196  92.1857879  72.6111629  76.0774441
 100.7817160  70.6114847  65.1226709 101.0577003  70.4971442  66.0320583
  99.9121658  70.2132332  65.0838882 100.6857591  56.6351613  72.1631458
  99.7720671  56.8655840  72.3313665 101.1150693  56.7190057  73.0145491
 100.4564050  64.8241505  74.6631352  99.8035500  65.0717412  74.0083805
 100.8344430  64.0105643  74.3293830  97.4171224  74.8601198  68.7659523
  97.5993618  74.0422854  69.2287275  98.2404210  75.0768890  68.3284413
  97.7513389  73.7869383  66.0274571  98.2801156  73.2761838  65.4144733
  98.0141609  73.4711913  66.8920104  96.5051623  65.5661316  81.1497389
  95.8292260  65.4655445  81.8199765  97.3279257  65.4100530  81.6133387
  88.2530482  71.8033253  73.7709905  88.8383919  71.0576940  73.9037809
  88.0555320  72.1137209  74.6546569  91.1069137  74.8384500  68.7872347
  90.4379512  75.3230628  68.3036387  90.9682007  75.0853720  69.7015726
  82.8448137  64.3738853  72.4914348  82.8832236  63.8402443  73.2851466
  82.3388429  63.8474058  71.8725325  95.2474406  76.8728243  75.3855005
  95.7992714  77.0359865  76.1504091  95.5880599  77.4632681  74.7135030
  90.2238899  59.2203393  75.9876890  90.2880225  60.0818224  75.5754288
  90.1606019  58.6077395  75.2549249  89.6991171  61.2926526  79.6349924
  90.3263210  60.9103603  80.2487449  88.8419090  61.0740728  80.0005617
 100.0985280  71.6989501  81.2403660 100.6425184  72.3119459  80.7458615
  99.5172125  72.2569079  81.7570673  98.3842793  74.8210219  72.3718688
  98.2593932  74.0199959  71.8629633  99.0421884  75.3156412  71.8832658
  90.0050961  61.1758951  71.5495828  89.2837547  61.7894919  71.4103301
  90.7944217  61.7116716  71.4712474 100.4477701  72.6219239  73.9998238
  99.5008037  72.5024590  73.9276564 100.7960474  71.7341737  74.0824499
  97.4524135  72.4171955  70.2002590  97.3049097  71.4888663  70.3810160
  98.2777628  72.4392046  69.7159665  91.3186379  61.0690022  66.0583082
  91.6582451  61.5975944  65.3361690  91.7658499  61.4070428  66.8341649
 101.0558256  73.2400514  71.2867463 101.9804804  73.0343375  71.1491914
 100.8873560  72.9916915  72.1956804  94.0129820  59.4527073  75.5086150
  93.6726640  58.6534886  75.9106830  93.3068826  59.7528784  74.9362983
  94.6646292  56.5376385  73.9613473  95.4872361  56.0636864  73.8392363
  94.9084355  57.3166869  74.4612159  93.3054526  59.5664644  64.2576375
  94.0262889  59.9445897  63.7540092  92.6819830  60.2853521  64.3611353
  97.4485649  60.2709793  65.1934707  97.6649263  61.1534431  64.8923535
  96.9679716  59.8796006  64.4640349  92.1884870  63.2295506  71.7705452
  92.0429451  63.5435809  72.6629733  91.7110074  63.8480406  71.2176350
  94.0481253  60.2198054  71.8186341  94.0342822  59.3239147  71.4818639
  94.7653681  60.2268718  72.4524627  95.9007384  60.6535394  73.8639469
  95.6425162  61.5752465  73.8623799  95.3692424  60.2565829  74.5539933
 100.8453573  73.7586181  66.6429554 101.0190450  73.1932604  65.8903407
 101.3382464  74.5587076  66.4609044  86.6630532  65.7700851  74.7093113
  86.1184001  66.5460659  74.8413387  87.5409882  66.1171655  74.5512234
  93.4518149  59.1012434  67.0873911  93.5734060  58.1729081  67.2864799
  93.1620191  59.1151120  66.1752227  96.3209339  56.7867345  70.2240631
  96.3431036  56.8506678  69.2692611  96.7377399  55.9471853  70.4181137
 106.6992964  66.5222604  68.2619854 107.1424110  65.7729930  67.8638977
 105.8219474  66.5132741  67.8793586 101.8328745  73.0752946  63.7426452
 102.5279650  73.6959639  63.9613767 102.1751895  72.2248297  64.0178830
  87.4496554  64.8970747  77.6023270  86.7078290  65.0453382  78.1887900
  87.1289299  65.1579012  76.7390019 103.7320168  70.5252651  65.2713783
 104.2571492  70.8639924  64.5463103 103.6442521  69.5899667  65.0876918
  95.3940217  74.4386725  77.4003660  95.7027343  74.1935872  78.2726359
  96.1915699  74.6433364  76.9122530  95.4160829  76.5924635  69.6309036
  94.9765819  76.1001013  70.3241893  96.1668946  76.0497602  69.3901112
  87.8953168  72.7836176  69.6333664  88.7211188  72.4839947  69.2532308
  87.5447220  72.0143798  70.0823453  92.8634701  72.1362644  71.7031338
  92.2414710  71.4733349  71.4033566  93.5339568  72.1623776  71.0204986
  86.0961773  70.7022502  70.5922598  85.2593681  70.2744676  70.4106599
  86.0685418  70.8954945  71.5293389  92.9359229  60.6144432  81.2963844
  92.9847384  61.4906555  80.9141614  93.4781743  60.0721825  80.7235487
 103.4214074  71.1585555  80.5764981 102.6309618  71.1409694  80.0369480
 103.1847429  71.6973849  81.3314018 103.5411949  68.0078021  77.8897710
 103.5909954  67.8428029  78.8313232 103.4325873  67.1405280  77.4995590
  92.4248208  70.6866567  65.1789799  92.5736328  71.3702031  64.5256471
  93.2314652  70.6671657  65.6939254 100.8315712  63.9908949  79.2057016
 101.7325575  63.8515414  78.9141014 100.9063686  64.1563404  80.1455194
  95.1658517  61.3675804  78.0510203  94.2961826  61.6609370  77.7792791
  95.4017997  61.9516249  78.7717466 105.0430146  70.4274963  78.1339731
 104.7514955  70.7904943  78.9703192 104.4302277  69.7141971  77.9553063
 106.2425829  67.9927843  70.6542301 107.0772720  68.4317647  70.8179862
 106.3784957  67.5166496  69.8350547 103.2917334  65.5507578  76.6019789
 103.7671456  65.7435224  75.7938641 102.3682900  65.6066763  76.3563173
  90.1800841  66.7131745  66.1850867  89.9346883  65.8094075  66.3831078
  90.3496756  66.7148895  65.2430345  97.8697551  57.5855421  75.5675623
  98.3879495  58.3216448  75.2422112  97.5152684  57.8919414  76.4022382
  89.4496489  62.4460102  63.6837029  88.7565734  62.5204457  63.0277065
  89.2048240  61.6820446  64.2058546  98.1210145  54.0055704  71.0876520
  98.4011899  53.3378893  71.7136946  98.9060752  54.1984799  70.5751183
  95.9243614  73.1814698  62.6501546  95.3517581  73.8004885  62.1972018
  96.4976407  73.7314059  63.1841468 101.9919003  62.4273338  74.8348095
 102.9436426  62.5271435  74.8560319 101.8222454  61.6351606  75.3446179
 100.0133383  59.5128921  75.0207496  99.4183315  59.7933934  74.3253984
  99.7283080  60.0022822  75.7924237  99.1440873  73.4651848  63.7810128
 100.0771547  73.3997409  63.9843004  99.0564086  74.3008115  63.3224661
 101.7728890  72.7817718  60.7414076 101.6942522  72.4477582  61.6349834
 102.5938557  73.2739486  60.7405548 104.4707081  65.6479457  73.9490394
 104.4383401  64.7095458  74.1350078 105.0807705  65.7263494  73.2156219
  96.3090412  64.5175510  59.9917598  97.2549517  64.3881718  60.0606016
  95.9304657  63.7790172  60.4687027 104.6201570  62.4390501  73.9948678
 104.1040618  61.6548957  73.8078606 105.5041518  62.1109217  74.1595197
 102.2812297  56.1831516  69.9544490 102.0837118  55.8746605  70.8387822
 102.8912002  56.9093155  70.0842420 110.2883631  66.7095464  73.0896431
 111.0187020  66.4480752  73.6504135 109.6790577  65.9724186  73.1298499
 108.3698928  64.8503327  73.6870882 107.6432092  64.7159292  73.0787374
 107.9546215  65.1580155  74.4927600  96.1929105  68.5693256  81.4518255
  97.1132114  68.7471855  81.6458302  96.1578688  67.6249302  81.2997955
  94.4933329  62.4425487  59.9272484  93.5864785  62.1458599  60.0035197
  94.7709310  62.1455305  59.0606770  89.1891177  66.4794291  74.0941037
  89.4077187  67.4111399  74.1129070  89.6016951  66.1202265  74.8795840
  96.1095395  56.9862376  66.0816725  95.2996123  56.6409461  66.4571971
  96.7979812  56.6769920  66.6704337  98.0385943  56.0640423  67.7041022
  98.5916982  56.4835877  68.3631045  98.2756030  55.1376171  67.7463978
  94.0619042  62.0527497  83.4843786  93.9615769  63.0021854  83.4155877
  93.8440585  61.7245736  82.6119856  93.2632114  59.3012422  60.0684463
  94.1251278  59.6267320  60.3280280  93.4482458  58.5143918  59.5557529
  85.2799530  67.3834762  72.3464652  84.5863001  66.9688714  71.8334606
  86.0272521  67.4255298  71.7498071 101.4164750  58.1740948  67.2119686
 100.8363419  58.8325752  66.8297738 101.1500683  57.3518293  66.8007103
  99.8668317  57.5746006  69.4141006 100.3668095  57.6862541  68.6055325
 100.5103925  57.2707059  70.0541815  93.9250313  65.4824636  82.3008847
  93.4417394  66.2824996  82.5072736  94.0111252  65.4932581  81.3476291
  87.1936272  67.3153015  70.2230667  87.1706960  67.4140703  69.2712550
  87.5036909  68.1618166  70.5447833  89.8523650  69.3729170  74.3377281
  90.8066904  69.3413113  74.2707213  89.6536174  68.9119794  75.1527507
  90.4423032  67.9430286  76.9048079  91.2615921  68.4374365  76.9282916
  90.7159840  67.0262255  76.8765646 100.1989628  60.3341039  66.2676034
  99.3115483  60.6190689  66.0496229 100.6143617  60.1734802  65.4203311
 103.5504165  60.3587560  69.9830373 104.3264555  60.8484012  70.2554990
 102.8252299  60.7845614  70.4402243 105.9876723  61.0715179  71.0404314
 106.5821214  60.8310915  70.3297622 106.0603307  60.3522310  71.6677850
  88.2073879  74.9148790  71.3547479  88.0728347  74.1549191  70.7885477
  87.7905941  75.6389690  70.8876268  99.3432842  70.0985713  60.3624054
 100.0468692  70.3035716  60.9781710  98.6195491  70.6662475  60.6273138
 100.1730652  65.8495575  66.4826324 100.1165854  66.3064126  65.6433957
 100.7258995  65.0886259  66.3049167 103.9835458  61.6385307  67.3076444
 103.7272392  61.2381942  68.1384651 103.3588326  62.3529100  67.1826583
 108.2947796  64.3781380  69.8147735 107.7347354  64.4474569  70.5879297
 107.6891299  64.2022364  69.0947231  91.3643005  75.8118107  71.5665921
  91.2475389  76.7563539  71.4644612  90.5435451  75.5091668  71.9551721
 101.2519539  70.5368243  62.4122514 102.0865143  70.1049441  62.2299989
 101.0903882  70.3650256  63.3399409 100.9065431  67.0400356  63.7778853
 100.8514235  66.8744627  62.8367298 100.2811487  67.7476389  63.9341043
  85.6957946  62.2768420  77.6040276  86.3416810  61.7667374  78.0927501
  85.4875098  63.0137102  78.1783701  98.2211339  69.3449268  83.1032416
  99.0902498  69.5189920  82.7419051  97.7418090  70.1643685  82.9808146
  94.2161557  56.5408465  63.3564172  94.2040227  57.4850305  63.5132443
  95.1084979  56.3578610  63.0623633  92.3897519  76.4646369  74.7821850
  93.2924766  76.4969979  75.0988345  92.1634889  75.5346820  74.7968186
  94.1451121  75.2177355  71.4431929  93.1946752  75.2179217  71.3296301
  94.4483607  74.4710090  70.9267963  98.0313676  53.1351242  67.6110109
  97.2646072  52.5809728  67.7566791  98.4424381  53.2073110  68.4724260
  90.0355437  59.4236037  81.7015290  90.8986899  59.0672842  81.9118614
  89.4620848  59.0849932  82.3890694 109.8803814  81.0537894  72.5077691
 110.5182224  80.9344641  71.8041031 109.7624657  82.0018738  72.5665643
 106.6893521  81.0065322  72.4439216 106.3512032  80.8906387  71.5559750
 107.5583289  80.6056487  72.4240222 102.5480336  82.8600798  68.4336107
 101.9845201  82.7690735  67.6652394 102.4332731  82.0400703  68.9138599
 107.1713304  82.1600174  78.4025421 107.1601944  81.7652972  77.5305925
 107.3333943  81.4266246  78.9959193 100.0944768  84.3551990  71.2720327
 100.8866060  84.0142814  70.8566626 100.3341418  84.4646965  72.1922480
 108.1279895  86.5271766  63.7450571 107.4767875  87.1125846  63.3584585
 108.9224258  87.0577961  63.8045609 102.0535522  83.6160903  64.1437706
 102.8266398  83.0689890  64.0050582 102.4060921  84.4805152  64.3552167
 103.8920565  84.9437285  77.3504605 103.6010431  85.8482916  77.2351271
 104.5277549  84.9853813  78.0648675 104.8176772  82.3214134  73.9405965
 105.4140344  82.0970156  73.2262928 104.8751743  81.5798879  74.5431413
 104.3901800  79.7753569  61.7756156 104.6427321  79.2535090  61.0139619
 103.4526359  79.6119715  61.8782839 109.4345083  78.7789348  69.5830899
 110.2208172  78.3608771  69.2321316 109.6983787  79.6835440  69.7512547
 109.6055160  84.2162198  64.2819556 108.9700993  84.2896824  64.9940460
 109.2752567  84.8055797  63.6038635 114.8353510  78.7164581  70.4863877
 115.5678682  78.1463798  70.7201707 114.0792866  78.3286181  70.9270383
 104.1098089  81.6781675  63.9780531 103.9934347  81.0026579  64.6461615
 104.2200349  81.1914049  63.1612684 106.4529630  81.1391822  67.6827220
 106.0887837  80.6122443  68.3940141 107.3096746  80.7490291  67.5093705
 112.3578930  72.4286155  74.9458486 112.0262255  73.2981566  74.7219701
 111.7624544  72.1122439  75.6252516 106.0935117  76.1681722  62.6788568
 106.2609519  77.0361958  63.0459039 105.9032286  76.3309004  61.7549858
 108.8510450  84.6298701  74.3454399 108.5511173  85.5323740  74.2370206
 108.5061509  84.3630884  75.1975552 102.3022931  81.0812498  70.3791103
 101.3773428  80.9488712  70.5868795 102.5507345  81.8606717  70.8761046
 112.2507594  77.1481241  72.0251836 111.3424471  77.0796649  71.7310597
 112.1995189  77.6253186  72.8533662 106.0724338  78.6239379  63.6635235
 105.9523963  79.0696430  64.5020716 105.3776926  78.9724697  63.1048773
  99.6631742  80.7245771  71.2134892  99.7924124  80.9780250  72.1274304
  98.9829194  81.3173479  70.8939547 103.8331230  91.3943021  67.3125366
 103.7555259  92.3450846  67.3913847 103.2292873  91.0488894  67.9700293
 106.3248459  78.5670887  79.9686733 105.5481793  79.1264807  79.9589598
 106.9639022  79.0527670  80.4901604 114.1169240  75.3497679  73.8029710
 113.4743620  75.6430213  73.1569505 113.6124169  75.2350600  74.6082907
 111.7709404  79.0960853  64.4915569 112.6827260  79.3288239  64.3163267
 111.2619051  79.6797897  63.9290648 104.5794832  81.3756340  79.5304700
 105.3209516  81.9141384  79.2539524 103.8731817  82.0022629  79.6876252
 110.0550171  83.5185480  78.1276862 110.4633527  83.0767891  77.3831494
 109.3327433  82.9438108  78.3811055 106.4081241  78.4558087  75.5010419
 107.2542437  78.8797501  75.6445068 106.3479879  77.7991712  76.1948982
 110.3778986  84.0786671  71.8829151 109.7487848  84.2432385  71.1805219
 109.9904648  84.4928281  72.6540115 114.2568218  85.0141109  69.2373515
 113.5719256  85.3940010  68.6870548 114.3412067  85.6236436  69.9705462
 109.5580687  76.1162456  77.1591592 109.3141619  76.8704516  76.6225868
 109.8340617  76.4947803  77.9938840 111.5119149  82.6601068  75.8368858
 111.7236045  83.3032828  75.1603239 111.4648898  81.8263385  75.3690788
 109.1145378  75.2718889  72.7405430 108.2529857  75.5700142  73.0322168
 109.1407813  75.4889288  71.8086463 105.9306948  83.8161079  69.1479236
 106.3945293  84.0948782  68.3583858 105.6663746  82.9144524  68.9652327
 102.8231029  83.3632561  72.0858999 103.3932386  83.7919829  71.4476484
 103.4139141  83.0815145  72.7843185 104.8675834  79.9384232  65.9568801
 105.5699877  80.3905275  66.4242727 104.5356462  79.2968050  66.5848694
 103.3156195  78.5295988  80.3320010 102.6854856  79.2112269  80.5655407
 103.2092283  78.4179070  79.3873149  98.6101168  78.1967784  71.2585935
  97.8200222  78.4525313  70.7826045  99.1012415  79.0116122  71.3637975
 112.6264977  85.5373023  74.0091215 113.4482421  85.1353211  73.7273897
 112.6227380  85.4341258  74.9607331 100.5615913  78.5612363  68.2169411
  99.7647077  78.6731058  68.7352907 100.3341505  78.8999016  67.3510302
 106.3921581  85.0857067  76.1651926 106.4566013  85.5477474  77.0010098
 105.6832505  84.4554432  76.2934236  96.8938871  78.4498275  73.6900925
  97.1446909  79.3345285  73.9558501  97.4298419  78.2702876  72.9176017
 106.1069599  86.7525174  66.0330906 105.9715273  87.5976710  66.4615754
 106.6479411  86.9544452  65.2696840 102.5936938  72.8316754  82.6945261
 102.2003884  72.2782953  83.3692906 103.4103078  73.1427333  83.0851779
  99.5598996  84.2700612  66.6058831 100.0723516  85.0643862  66.7564396
 100.2121709  83.5726903  66.5392433 101.3693881  87.3866369  68.6881584
 101.5460509  88.3084333  68.5002568 102.1650714  87.0724788  69.1175964
 105.5104899  74.2474633  80.2865518 106.2514613  74.8481786  80.2069980
 105.7422822  73.5052271  79.7283561 100.6546237  79.4331000  78.5643748
 100.5399752  78.5316258  78.8650847  99.7990755  79.6794697  78.2128564
 107.7338075  87.3748741  80.1631248 107.2901929  86.5885119  79.8452153
 108.3955288  87.5627891  79.4975139 102.4925196  88.9044542  74.6891927
 103.0432621  88.7761606  73.9168921 101.6536672  89.2039431  74.3386820
 109.8319313  87.6551541  78.1912650 109.8137788  88.4760422  77.6992919
 110.7539233  87.5305616  78.4162791 106.2892367  85.1695670  79.0336158
 106.8220704  84.4083958  78.8035466 105.7606448  84.8769322  79.7760312
 109.4562062  70.2755736  74.5629800 109.1126331  71.1657378  74.4868910
 109.8241025  70.0857394  73.6999385  97.5247913  82.5989267  67.3818402
  98.3623135  83.0086275  67.1652110  97.7026180  81.6588709  67.3518596
 109.4212345  80.2664347  63.0702235 108.9058968  81.0368952  63.3090622
 109.1489653  79.5929483  63.6935296 107.0059456  75.1114048  68.1287473
 106.1501052  74.7220898  67.9493112 107.4186408  75.1906009  67.2687259
 108.5358602  72.6460391  72.5279033 108.0323398  72.6090526  71.7146838
 108.8289209  73.5553134  72.5875690 104.7801488  72.7299121  71.5345215
 105.6454485  72.5341930  71.1751104 104.8478997  72.5009473  72.4614571
 114.3946619  83.0196702  65.0055408 113.6176062  82.6807861  64.5610570
 115.0738100  83.0249325  64.3310373 109.2098648  78.1391439  64.8962016
 108.9048784  78.4537588  65.7472159 110.1629090  78.2172859  64.9389349
 107.6545080  84.2981663  66.5454970 107.1266441  83.5634422  66.2328207
 107.1532583  85.0756339  66.2994938 112.6337926  82.4930683  71.6622016
 111.9761600  83.1829944  71.7502145 113.4378325  82.8827115  72.0056003
 102.3863807  74.9601329  68.9061581 102.9607559  74.7376510  68.1734774
 102.9734790  75.0290023  69.6590183 111.4443385  80.8475056  69.7125958
 111.9575266  81.4805048  70.2147668 112.0944609  80.2476251  69.3469318
 102.7133395  76.9905790  62.9257467 101.8770707  77.3280476  63.2466741
 102.5738164  76.8554770  61.9884604 104.6886475  71.8342578  67.6336651
 104.0350888  71.5191595  67.0093266 104.6466949  71.2118318  68.3596474
 105.7997680  82.1161873  59.5489943 104.8924742  81.8851126  59.7481092
 106.2968712  81.3199492  59.7363925 108.7065759  90.8259380  62.4686629
 108.0327458  91.1291077  63.0771587 109.0931581  91.6288460  62.1192086
 107.9224216  78.3224511  71.9584299 107.0046777  78.5439458  71.8005987
 108.3384359  78.3970822  71.0996006 108.7059263  79.7215927  67.0886979
 109.4531082  80.2337324  66.7794101 108.9750853  79.3999980  67.9491372
 106.9785913  82.2174468  64.0713933 106.0697133  81.9333501  64.1686403
 107.0080997  82.6373546  63.2117240 112.2105181  85.8281057  67.8405101
 111.7567508  84.9871967  67.8970291 111.5799148  86.4642456  68.1779881
 111.1538100  76.7573043  69.0705768 110.4160857  76.2450429  69.4016011
 111.4064874  76.3173425  68.2589045 110.6538120  87.6657554  68.7754919
 110.9461094  88.2262611  68.0567284 111.1636741  87.9586115  69.5308078
 111.2549728  69.5349295  69.6647537 111.5608605  68.6746659  69.3773452
 111.9802333  70.1266915  69.4646531  97.5474084  79.9379982  68.0529135
  97.3498484  79.3449343  67.3280202  96.9920748  79.6332192  68.7705074
 105.5270808  79.8303088  70.1723728 105.5819417  78.8776925  70.0966205
 104.7162010  79.9862527  70.6565027 106.6762001  83.7583211  61.4102012
 106.2381431  83.0419070  60.9507649 107.4172442  83.9859326  60.8487103
 103.4663167  78.4480148  67.9314107 102.6531033  78.7474319  68.3379299
 103.9622162  78.0535837  68.6488590 105.6171745  88.4437905  69.8648372
 105.5747924  88.6698751  68.9356904 106.5334444  88.2101280  70.0134173
 109.0637379  78.9121973  76.7629001 109.4186767  79.1393446  77.6223467
 109.7109510  79.2440349  76.1406256 114.7935116  82.0340408  67.4678330
 114.6553015  82.2242004  66.5399519 114.4371335  82.7959791  67.9246381
 102.9577242  76.0198504  73.5475342 103.5976622  75.8787263  72.8498306
 102.1254773  75.7333017  73.1713944 114.8204496  84.1016935  72.4789602
 115.2541002  84.0092225  73.3272656 115.5336076  84.0774436  71.8409618
 103.7337546  85.3200934  69.6610335 104.5278145  84.8251254  69.4592910
 103.0229238  84.7918797  69.2978040 108.5532391  87.7019030  74.0122702
 108.6069413  88.2709966  74.7800418 107.6847172  87.8720915  73.6476739
 100.0420310  79.4644016  65.7370087  99.1117898  79.4028471  65.9540050
 100.1377782  78.9419969  64.9406729  99.9605859  75.9898829  68.3248329
 100.2212676  76.9044162  68.2157490 100.7823031  75.5223271  68.4744942
 101.4330784  77.4036586  75.4947154 102.1053837  77.1953948  74.8459802
 100.6060570  77.2058672  75.0552386 115.6820045  84.1440636  75.0122487
 115.8755935  85.0486447  75.2581762 115.5820663  83.6848055  75.8461072
 107.3356356  74.0298527  77.5112814 106.6884271  74.7288476  77.4177291
 108.1057371  74.4634671  77.8789063 110.7435154  84.2947379  80.5863368
 110.5920660  84.0657931  79.6693451 110.7339833  85.2517980  80.5994713
 107.5120490  81.8679292  75.5709634 108.4412550  82.0190451  75.3978601
 107.0911520  81.9563312  74.7158281 106.3108822  85.8929956  73.3408172
 106.1719908  85.5248740  74.2134110 105.5223418  86.4077595  73.1692130
 106.9056974  90.9939052  64.6833708 107.0808730  90.5227096  65.4979331
 106.2189762  91.6204819  64.9114969 107.8614037  85.2711559  70.7297010
 107.5263870  85.2312329  71.6254659 107.3617983  84.6056275  70.2567420
 101.8358281  80.6779189  76.2549591 101.6978079  79.9459428  76.8561130
 102.7463205  80.5888089  75.9733778 110.7973229  82.6167593  61.0034069
 110.1802400  81.8914421  60.9067122 110.3289717  83.3776953  60.6601144
 104.4640582  80.3899148  75.7433270 105.1740200  79.7492340  75.7019889
 104.4209890  80.6412043  76.6659451 112.4527361  87.3266501  78.6639850
 112.3939907  86.6425722  77.9970433 112.8546879  88.0685491  78.2120476
 103.1769516  77.3764366  77.5628910 102.6406873  76.9255104  78.2150506
 102.5886224  77.5110275  76.8199374 101.4718059  94.1428415  71.4573568
 101.7114658  94.7746939  72.1352587 100.6287256  93.7916455  71.7438928
 102.5871775  76.8353017  60.1255374 101.7101241  76.7141818  59.7617620
 103.0629528  76.0439096  59.8734262 112.4544768  85.2906085  76.8953829
 111.5671547  84.9532007  77.0180228 113.0243319  84.5589117  77.1322595
  94.1073915  81.6230177  70.2196881  94.7944955  81.3091907  69.6317896
  93.9522044  82.5271542  69.9464132  98.9108637  76.5120374  74.6481904
  98.8266826  75.9046043  73.9132314  98.0891343  77.0029392  74.6491401
 105.9845921  89.9507538  73.8615072 105.9116093  90.7562509  74.3734377
 105.5423314  90.1499503  73.0363094 105.7735701  89.1879308  67.3717894
 104.9903223  89.7300988  67.4656119 106.4728446  89.7053287  67.7712135
 109.0832351  74.9973937  70.0152099 109.5801050  74.2443899  69.6953170
 108.3119332  75.0338254  69.4495309 108.4444605  89.8494372  76.0173231
 109.1572577  90.4841837  75.9449133 107.9534633  89.9458238  75.2013233
 110.1662132  83.7545624  67.5890523 109.2318410  83.8747087  67.4195227
 110.3438800  82.8518091  67.3250533 105.6667320  77.1391320  69.7423784
 105.2965107  76.5862361  70.4304690 106.1626412  76.5349454  69.1898784
 113.5534683  79.5962944  68.1240557 114.0195135  80.4290935  68.0500860
 114.0042183  79.1307925  68.8285815 103.4956518  87.5988815  76.8378802
 104.1965978  88.2325298  76.9908196 103.0251633  87.9403547  76.0774441
 111.6210914  85.9406765  65.1226709 111.8970758  85.8263360  66.0320583
 110.7515413  85.5424250  65.0838882 111.5251346  71.9643531  72.1631458
 110.6114426  72.1947757  72.3313665 111.9544447  72.0481975  73.0145491
 111.2957804  80.1533423  74.6631352 110.6429254  80.4009330  74.0083805
 111.6738184  79.3397561  74.3293830 108.2564978  90.1893116  68.7659523
 108.4387373  89.3714772  69.2287275 109.0797964  90.4060808  68.3284413
 108.5907144  89.1161301  66.0274571 109.1194910  88.6053756  65.4144733
 108.8535363  88.8003831  66.8920104 107.3445377  80.8953234  81.1497389
 106.6686014  80.7947363  81.8199765 108.1673011  80.7392447  81.6133387
  99.0924236  87.1325170  73.7709905  99.6777673  86.3868858  73.9037809
  98.8949075  87.4429127  74.6546569 101.9462892  90.1676418  68.7872347
 101.2773267  90.6522545  68.3036387 101.8075761  90.4145638  69.7015726
  93.6841891  79.7030770  72.4914348  93.7225991  79.1694361  73.2851466
  93.1782184  79.1765976  71.8725325 106.0868160  92.2020161  75.3855005
 106.6386468  92.3651783  76.1504091 106.4274354  92.7924599  74.7135030
 101.0632653  74.5495311  75.9876890 101.1273980  75.4110142  75.5754288
 100.9999774  73.9369313  75.2549249 100.5384926  76.6218443  79.6349924
 101.1656965  76.2395521  80.2487449  99.6812845  76.4032645  80.0005617
 110.9379034  87.0281419  81.2403660 111.4818938  87.6411377  80.7458615
 110.3565879  87.5860997  81.7570673  97.3150469  78.4294873  65.5668279
  97.6103910  77.5205551  65.5135333  96.4138504  78.4082612  65.2449282
 109.2236547  90.1502137  72.3718688 109.0987687  89.3491876  71.8629633
 109.8815639  90.6448330  71.8832658 100.8444716  76.5050869  71.5495828
 100.1231301  77.1186837  71.4103301 101.6337971  77.0408634  71.4712474
 111.2871456  87.9511157  73.9998238 110.3401791  87.8316508  73.9276564
 111.6354229  87.0633655  74.0824499 103.6471029  73.8405296  77.8236480
 104.1705431  74.0867592  78.5862789 103.4283362  74.6725330  77.4039617
  99.0438310  76.1108970  65.6907604  98.7151016  75.2306349  65.5082710
  99.3977681  76.0556639  66.5783994 108.2917889  87.7463873  70.2002590
 108.1442852  86.8180580  70.3810160 109.1171383  87.7683964  69.7159665
 102.1580133  76.3981940  66.0583082 102.4976206  76.9267861  65.3361690
 102.6052254  76.7362346  66.8341649 111.8952011  88.5692432  71.2867463
 112.8198558  88.3635293  71.1491914 111.7267314  88.3208833  72.1956804
 104.8523574  74.7818991  75.5086150 104.5120395  73.9826804  75.9106830
 104.1462580  75.0820702  74.9362983 105.5040046  71.8668303  73.9613473
 106.3266115  71.3928781  73.8392363 105.7478110  72.6458787  74.4612159
 104.1448281  74.8956562  64.2576375 104.8656643  75.2737814  63.7540092
 103.5213585  75.6145438  64.3611353 108.2879403  75.6001711  65.1934707
 108.5043018  76.4826348  64.8923535 107.8073471  75.2087924  64.4640349
 103.0278625  78.5587424  71.7705452 102.8823206  78.8727727  72.6629733
 102.5503828  79.1772324  71.2176350 104.8875008  75.5489972  71.8186341
 104.8736576  74.6531065  71.4818639 105.6047436  75.5560636  72.4524627
 106.7401138  75.9827312  73.8639469 106.4818916  76.9044383  73.8623799
 106.2086179  75.5857747  74.5539933 111.6847327  89.0878099  66.6429554
 111.8584205  88.5224522  65.8903407 112.1776218  89.8878994  66.4609044
  97.5024287  81.0992768  74.7093113  96.9577755  81.8752576  74.8413387
  98.3803637  81.4463573  74.5512234 104.2911904  74.4304352  67.0873911
 104.4127815  73.5020998  67.2864799 104.0013946  74.4443038  66.1752227
 107.1603094  72.1159263  70.2240631 107.1824791  72.1798596  69.2692611
 107.5771153  71.2763771  70.4181137 112.6722500  88.4044864  63.7426452
 113.3673404  89.0251556  63.9613767 113.0145650  87.5540215  64.0178830
  98.2890309  80.2262664  77.6023270  97.5472045  80.3745300  78.1887900
  97.9683053  80.4870930  76.7390019 114.5713923  85.8544569  65.2713783
 115.0965247  86.1931842  64.5463103 114.4836275  84.9191584  65.0876918
 106.2333971  89.7678643  77.4003660 106.5421098  89.5227789  78.2726359
 107.0309453  89.9725281  76.9122530 106.2554583  91.9216552  69.6309036
 105.8159574  91.4292931  70.3241893 107.0062700  91.3789520  69.3901112
  98.7346922  88.1128093  69.6333664  99.5604942  87.8131865  69.2532308
  98.3840974  87.3435716  70.0823453 103.7028456  87.4654561  71.7031338
 103.0808465  86.8025266  71.4033566 104.3733323  87.4915693  71.0204986
  96.9355528  86.0314420  70.5922598  96.0987436  85.6036594  70.4106599
  96.9079173  86.2246863  71.5293389 103.7752983  75.9436349  81.2963844
 103.8241139  76.8198472  80.9141614 104.3175497  75.4013743  80.7235487
 114.2607829  86.4877473  80.5764981 113.4703373  86.4701612  80.0369480
 114.0241183  87.0265766  81.3314018 114.3805704  83.3369939  77.8897710
 114.4303709  83.1719947  78.8313232 114.2719627  82.4697198  77.4995590
 103.2641963  86.0158485  65.1789799 103.4130083  86.6993949  64.5256471
 104.0708406  85.9963575  65.6939254 111.6709466  79.3200867  79.2057016
 112.5719329  79.1807332  78.9141014 111.7457441  79.4855322  80.1455194
 106.0052272  76.6967722  78.0510203 105.1355581  76.9901288  77.7792791
 106.2411752  77.2808167  78.7717466 115.8823901  85.7566881  78.1339731
 115.5908709  86.1196861  78.9703192 115.2696032  85.0433889  77.9553063
 114.1311089  80.8799495  76.6019789 114.6065211  81.0727142  75.7938641
 113.2076654  80.9358681  76.3563173 101.0194596  82.0423662  66.1850867
 100.7740637  81.1385992  66.3831078 101.1890510  82.0440813  65.2430345
 108.7091305  72.9147339  75.5675623 109.2273249  73.6508366  75.2422112
 108.3546438  73.2211332  76.4022382 100.2890243  77.7752020  63.6837029
  99.5959488  77.8496375  63.0277065 100.0441995  77.0112364  64.2058546
 108.9603900  69.3347621  71.0876520 109.2405653  68.6670810  71.7136946
 109.7454507  69.5276717  70.5751183 106.7637368  88.5106615  62.6501546
 106.1911335  89.1296802  62.1972018 107.3370162  89.0605977  63.1841468
 112.8312758  77.7565255  74.8348095 113.7830181  77.8563353  74.8560319
 112.6616208  76.9643524  75.3446179 110.8527137  74.8420839  75.0207496
 110.2577070  75.1225851  74.3253984 110.5676834  75.3314739  75.7924237
 109.9834628  88.7943765  63.7810128 110.9165301  88.7289327  63.9843004
 109.8957841  89.6300032  63.3224661 112.6122645  88.1109636  60.7414076
 112.5336276  87.7769499  61.6349834 113.4332311  88.6031404  60.7405548
 107.1484167  79.8467428  59.9917598 108.0943271  79.7173636  60.0606016
 106.7698412  79.1082090  60.4687027 113.1206051  71.5123434  69.9544490
 112.9230872  71.2038522  70.8387822 113.7305757  72.2385073  70.0842420
 107.0322859  83.8985174  81.4518255 107.9525869  84.0763773  81.6458302
 106.9972442  82.9541219  81.2997955 105.3327084  77.7717404  59.9272484
 104.4258539  77.4750517  60.0035197 105.6103065  77.4747222  59.0606770
  96.2505024  79.0923768  70.3771530  95.9307808  78.2389076  70.0845904
  95.7038452  79.3072346  71.1329497 100.0284932  81.8086209  74.0941037
 100.2470941  82.7403317  74.1129070 100.4410705  81.4494183  74.8795840
 106.9489149  72.3154294  66.0816725 106.1389878  71.9701379  66.4571971
 107.6373566  72.0061838  66.6704337 108.8779698  71.3932341  67.7041022
 109.4310736  71.8127794  68.3631045 109.1149784  70.4668089  67.7463978
 104.9012797  77.3819415  83.4843786 104.8009524  78.3313771  83.4155877
 104.6834339  77.0537653  82.6119856 104.1025868  74.6304340  60.0684463
 104.9645032  74.9559238  60.3280280 104.2876213  73.8435835  59.5557529
  96.1193284  82.7126679  72.3464652  95.4256756  82.2980632  71.8334606
  96.8666275  82.7547216  71.7498071 112.2558505  73.5032866  67.2119686
 111.6757174  74.1617670  66.8297738 111.9894438  72.6810211  66.8007103
 110.7062071  72.9037924  69.4141006 111.2061850  73.0154458  68.6055325
 111.3497679  72.5998977  70.0541815 104.7644067  80.8116553  82.3008847
 104.2811149  81.6116913  82.5072736 104.8505006  80.8224498  81.3476291
  98.0330027  82.6444933  70.2230667  98.0100715  82.7432620  69.2712550
  98.3430663  83.4910084  70.5447833 100.6917405  84.7021088  74.3377281
 101.6460658  84.6705030  74.2707213 100.4929928  84.2411712  75.1527507
 101.2816787  83.2722204  76.9048079 102.1009676  83.7666283  76.9282916
 101.5553594  82.3554172  76.8765646 111.0383383  75.6632956  66.2676034
 110.1509238  75.9482607  66.0496229 111.4537372  75.5026720  65.4203311
 114.3897919  75.6879477  69.9830373 115.1658309  76.1775930  70.2554990
 113.6646053  76.1137532  70.4402243  99.0467633  90.2440708  71.3547479
  98.9122101  89.4841108  70.7885477  98.6299696  90.9681607  70.8876268
 110.1826596  85.4277631  60.3624054 110.8862446  85.6327634  60.9781710
 109.4589245  85.9954393  60.6273138 111.0124407  81.1787492  66.4826324
 110.9559608  81.6356044  65.6433957 111.5652749  80.4178177  66.3049167
 114.8229213  76.9677224  67.3076444 114.5666147  76.5673860  68.1384651
 114.1982081  77.6821018  67.1826583 102.2036759  91.1410025  71.5665921
 102.0869143  92.0855457  71.4644612 101.3829205  90.8383586  71.9551721
 112.0913294  85.8660160  62.4122514 112.9258898  85.4341359  62.2299989
 111.9297637  85.6942174  63.3399409 111.7459186  82.3692274  63.7778853
 111.6907990  82.2036545  62.8367298 111.1205241  83.0768307  63.9341043
  96.5351701  77.6060338  77.6040276  97.1810564  77.0959292  78.0927501
  96.3268852  78.3429020  78.1783701 109.0605093  84.6741185  83.1032416
 109.9296253  84.8481838  82.7419051 108.5811845  85.4935602  82.9808146
 105.0555311  71.8700383  63.3564172 105.0433981  72.8142223  63.5132443
 105.9478733  71.6870528  63.0623633 103.2291273  91.7938286  74.7821850
 104.1318520  91.8261897  75.0988345 103.0028643  90.8638737  74.7968186
 104.9844875  90.5469273  71.4431929 104.0340506  90.5471135  71.3296301
 105.2877361  89.8002008  70.9267963 108.8707431  68.4643159  67.6110109
 108.1039827  67.9101646  67.7566791 109.2818136  68.5365028  68.4724260
 100.8749192  74.7527955  81.7015290 101.7380653  74.3964760  81.9118614
 100.3014603  74.4141850  82.3890694 113.3874091  98.1892716  68.4336107
 112.8238956  98.0982653  67.6652394 113.2726486  97.3692620  68.9138599
 110.9338523  99.6843908  71.2720327 111.7259815  99.3434732  70.8566626
 111.1735173  99.7938883  72.1922480 112.8929277  98.9452821  64.1437706
 113.6660153  98.3981808  64.0050582 113.2454676  99.8097070  64.3552167
 115.2295554  95.1045487  61.7756156 115.4821075  94.5827008  61.0139619
 114.2920114  94.9411632  61.8782839 114.9491843  97.0073593  63.9780531
 114.8328101  96.3318496  64.6461615 115.0594103  96.5205967  63.1612684
 113.1416686  96.4104415  70.3791103 112.2167182  96.2780630  70.5868795
 113.3901099  97.1898635  70.8761046 110.5025497  96.0537689  71.2134892
 110.6317878  96.3072168  72.1274304 109.8222948  96.6465397  70.8939547
 113.6624783  98.6924478  72.0858999 114.2326140  99.1211747  71.4476484
 114.2532895  98.4107063  72.7843185 114.1549950  93.8587906  80.3320010
 113.5248611  94.5404187  80.5655407 114.0486038  93.7470987  79.3873149
 109.4494922  93.5259702  71.2585935 108.6593976  93.7817230  70.7826045
 109.9406170  94.3408040  71.3637975 111.4009668  93.8904281  68.2169411
 110.6040831  94.0022975  68.7352907 111.1735260  94.2290933  67.3510302
 107.7332625  93.7790192  73.6900925 107.9840664  94.6637202  73.9558501
 108.2692174  93.5994794  72.9176017 113.4330693  88.1608672  82.6945261
 113.0397638  87.6074870  83.3692906 114.2496833  88.4719250  83.0851779
 110.3992750  99.5992530  66.6058831 110.9117271 100.3935780  66.7564396
 111.0515463  98.9018820  66.5392433 111.4939992  94.7622918  78.5643748
 111.3793507  93.8608175  78.8650847 110.6384509  95.0086615  78.2128564
 108.3641667  97.9281184  67.3818402 109.2016889  98.3378193  67.1652110
 108.5419935  96.9880626  67.3518596 113.2257562  90.2893247  68.9061581
 113.8001314  90.0668428  68.1734774 113.8128544  90.3581941  69.6590183
 113.5527149  92.3197708  62.9257467 112.7164461  92.6572394  63.2466741
 113.4131919  92.1846687  61.9884604 115.5280230  87.1634495  67.6336651
 114.8744642  86.8483513  67.0093266 115.4860704  86.5410236  68.3596474
 108.3867838  95.2671900  68.0529135 108.1892238  94.6741260  67.3280202
 107.8314502  94.9624110  68.7705074 114.3056922  93.7772066  67.9314107
 113.4924787  94.0766236  68.3379299 114.8015916  93.3827755  68.6488590
 113.7970997  91.3490421  73.5475342 114.4370376  91.2079180  72.8498306
 112.9648527  91.0624935  73.1713944 110.8814064  94.7935933  65.7370087
 109.9511652  94.7320389  65.9540050 110.9771536  94.2711886  64.9406729
 110.7999613  91.3190746  68.3248329 111.0606430  92.2336080  68.2157490
 111.6216785  90.8515189  68.4744942 112.2724538  92.7328503  75.4947154
 112.9447592  92.5245866  74.8459802 111.4454325  92.5350589  75.0552386
 112.6752036  96.0071106  76.2549591 112.5371834  95.2751345  76.8561130
 113.5856959  95.9180007  75.9733778 114.0163270  92.7056284  77.5628910
 113.4800627  92.2547022  78.2150506 113.4279979  92.8402192  76.8199374
 113.4265529  92.1644935  60.1255374 112.5494996  92.0433736  59.7617620
 113.9023282  91.3731013  59.8734262 104.9467669  96.9522095  70.2196881
 105.6338709  96.6383825  69.6317896 104.7915798  97.8563459  69.9464132
 109.7502392  91.8412291  74.6481904 109.6660580  91.2337961  73.9132314
 108.9285098  92.3321310  74.6491401 109.9317991 102.4617088  73.7709905
 110.5171428 101.7160776  73.9037809 109.7342829 102.7721045  74.6546569
 104.5235646  95.0322688  72.4914348 104.5619745  94.4986279  73.2851466
 104.0175938  94.5057894  71.8725325 111.9026408  89.8787229  75.9876890
 111.9667734  90.7402060  75.5754288 111.8393528  89.2661230  75.2549249
 111.3778680  91.9510361  79.6349924 112.0050719  91.5687438  80.2487449
 110.5206599  91.7324563  80.0005617 108.1544223  93.7586790  65.5668279
 108.4497664  92.8497469  65.5135333 107.2532259  93.7374530  65.2449282
 111.6838470  91.8342787  71.5495828 110.9625056  92.4478755  71.4103301
 112.4731726  92.3700552  71.4712474 114.4864784  89.1697213  77.8236480
 115.0099185  89.4159510  78.5862789 114.2677117  90.0017248  77.4039617
 109.8832065  91.4400888  65.6907604 109.5544771  90.5598267  65.5082710
 110.2371435  91.3848557  66.5783994 112.9973888  91.7273858  66.0583082
 113.3369960  92.2559779  65.3361690 113.4446008  92.0654264  66.8341649
 115.6917329  90.1110908  75.5086150 115.3514149  89.3118722  75.9106830
 114.9856335  90.4112619  74.9362983 114.9842035  90.2248479  64.2576375
 115.7050398  90.6029732  63.7540092 114.3607339  90.9437356  64.3611353
 113.8672379  93.8879342  71.7705452 113.7216960  94.2019645  72.6629733
 113.3897583  94.5064242  71.2176350 108.3418041  96.4284686  74.7093113
 107.7971510  97.2044494  74.8413387 109.2197391  96.7755490  74.5512234
 115.1305658  89.7596270  67.0873911 115.2521569  88.8312916  67.2864799
 114.8407700  89.7734956  66.1752227 109.1284063  95.5554582  77.6023270
 108.3865799  95.7037218  78.1887900 108.8076808  95.8162848  76.7390019
 107.7749282 101.3606337  70.5922598 106.9381190 100.9328512  70.4106599
 107.7472927 101.5538781  71.5293389 114.6146738  91.2728267  81.2963844
 114.6634893  92.1490390  80.9141614 115.1569252  90.7305660  80.7235487
 111.8588350  97.3715580  66.1850867 111.6134392  96.4677910  66.3831078
 112.0284265  97.3732731  65.2430345 111.1283998  93.1043938  63.6837029
 110.4353243  93.1788293  63.0277065 110.8835749  92.3404281  64.2058546
 107.0898779  94.4215685  70.3771530 106.7701563  93.5680994  70.0845904
 106.5432207  94.6364264  71.1329497 110.8678686  97.1378126  74.0941037
 111.0864696  98.0695234  74.1129070 111.2804460  96.7786101  74.8795840
 115.7406551  92.7111332  83.4843786 115.6403278  93.6605689  83.4155877
 115.5228094  92.3829571  82.6119856 114.9419623  89.9596257  60.0684463
 115.8038787  90.2851156  60.3280280 115.1269967  89.1727753  59.5557529
 106.9587039  98.0418597  72.3464652 106.2650510  97.6272550  71.8334606
 107.7060030  98.0839133  71.7498071 115.6037822  96.1408471  82.3008847
 115.1204903  96.9408831  82.5072736 115.6898761  96.1516416  81.3476291
 108.8723781  97.9736851  70.2230667 108.8494469  98.0724538  69.2712550
 109.1824418  98.8202002  70.5447833 111.5311159 100.0313006  74.3377281
 112.4854413  99.9996948  74.2707213 111.3323683  99.5703629  75.1527507
 112.1210541  98.6014122  76.9048079 112.9403430  99.0958200  76.9282916
 112.3947349  97.6846090  76.8765646 107.3745455  92.9352256  77.6040276
 108.0204319  92.4251210  78.0927501 107.1662606  93.6720937  78.1783701
 111.7142946  90.0819873  81.7015290 112.5774408  89.7256678  81.9118614
 111.1408357  89.7433768  82.3890694  47.2749288  -5.4969051  58.1818875
  47.5145886  -4.8650526  58.8597894  46.4318485  -5.8481011  58.4684234
  59.1905320  -1.4504750  55.1581413  58.6270185  -1.5414813  54.3897701
  59.0757715  -2.2704845  55.6383906  56.7369752   0.0446442  57.9965634
  57.5291043  -0.2962734  57.5811933  56.9766402   0.1541417  58.9167787
  64.7704878   2.2166218  50.4695878  64.1192858   2.8020298  50.0829892
  65.5649241   2.7472413  50.5290916  58.6960505  -0.6944645  50.8683012
  59.4691381  -1.2415658  50.7295888  59.0485904   0.1699604  51.0797474
  60.5345548   0.6331737  64.0749912  60.2435414   1.5377368  63.9596578
  61.1702532   0.6748265  64.7893981  66.2480143  -0.0943350  51.0064862
  65.6125976  -0.0208724  51.7185767  65.9177550   0.4950249  50.3283942
  65.4935433   0.3193153  61.0699705  65.1936156   1.2218192  60.9615513
  65.1486493   0.0525336  61.9220858  56.3056726  -3.5859777  57.9380199
  56.4349107  -3.3325298  58.8519611  55.6254177  -2.9932069  57.6184854
  60.4756213   7.0837473  54.0370673  60.3980243   8.0345298  54.1159154
  59.8717857   6.7383346  54.6945599  62.5731931  -0.4944469  55.8724543
  63.0370277  -0.2156766  55.0829165  62.3088729  -1.3961024  55.6897633
  59.4656012  -0.9472987  58.8104306  60.0357369  -0.5185719  58.1721790
  60.0564124  -1.2290403  59.5088491  63.0346564   0.7751519  62.8897233
  63.0990997   1.2371926  63.7255404  62.3257488   0.1448884  63.0179542
  62.7494582   2.4419626  52.7576213  62.6140257   3.2871162  53.1861061
  63.2904394   2.6438904  51.9942147  56.2023979  -0.0404936  53.3304138
  56.7148500   0.7538314  53.4809703  56.8546692  -0.7378645  53.2637739
  58.0118864   3.0760820  55.4126891  58.1885492   3.9978785  55.2247875
  58.8075697   2.7619240  55.8421271  64.3763058   3.0643193  66.8876555
  63.9326912   2.2779571  66.5697459  65.0380272   3.2522343  66.2220446
  59.1350179   4.5938994  61.4137233  59.6857605   4.4656058  60.6414227
  58.2961655   4.8933883  61.0632126  66.4744296   3.3445993  64.9157956
  66.4562772   4.1654874  64.4238225  67.3964216   3.2200068  65.1408097
  62.9317350   0.8590122  65.7581465  63.4645687   0.0978410  65.5280773
  62.4031432   0.5663774  66.5005619  54.1672896  -1.7116282  54.1063708
  55.0048118  -1.3019273  53.8897416  54.3451164  -2.6516839  54.0763902
  64.2970063  -0.0123886  53.2700277  63.7691425  -0.7471126  52.9573514
  63.7957566   0.7650791  53.0240245  65.3490742   6.5153832  49.1931936
  64.6752441   6.8185529  49.8016894  65.7356564   7.3182912  48.8437393
  68.8530164   1.5175509  54.5650407  68.3992491   0.6766419  54.6215598
  68.2224131   2.1536907  54.9025187  67.2963103   3.3552006  55.5000225
  67.5886078   3.9157063  54.7812591  67.8061724   3.6480567  56.2553385
  63.3186985  -0.5522337  48.1347318  62.8806414  -1.2686478  47.6752956
  64.0597425  -0.3246222  47.5732410  62.2596729   4.1332357  56.5893679
  62.2172907   4.3593203  55.6602211  63.1759427   3.8995731  56.7379480
  60.3762529   1.0095386  56.3855641  61.1703128   0.5145706  56.1838216
  59.6654222   0.4813249  56.0223347  65.1957374   3.3913481  60.7368009
  65.2494396   3.9604418  61.5045725  64.3272155   3.5615366  60.3722046
  62.9533805   1.5824408  60.0653478  62.8144891   1.2143192  60.9379417
  62.1648402   2.0972047  59.8937436  63.5481957   6.6833504  51.4079015
  63.7233713   6.2121548  52.2224638  62.8614745   7.3099271  51.6360276
  64.5039021   0.9606011  57.4542316  64.1688853   0.9206781  58.3499966
  64.0042966   0.2950727  56.9812726  69.0952344   3.0160953  65.3885156
  69.0364890   2.3320173  64.7215739  69.4971862   3.7579943  64.9365782
  58.1143043   9.8322867  58.1818875  58.3539641  10.4641391  58.8597894
  57.2712239   9.4810907  58.4684234  50.7498898  -2.6875371  56.9442187
  51.4369938  -3.0013641  56.3563203  50.5947027  -1.7834006  56.6709439
  62.6270905   5.6401990  60.5860379  62.5541076   6.4456961  61.0979684
  62.1848298   5.8393955  59.7608401  62.4160684   4.8773760  54.0963201
  61.6328206   5.4195440  54.1901425  63.1153429   5.3947739  54.4957442
  65.0869588   5.5388824  62.7418538  65.7997560   6.1736288  62.6694439
  64.5959617   5.6352690  61.9258540  60.1381502   3.2883267  63.5624109
  60.8390961   3.9219750  63.7153503  59.6676617   3.6297999  62.8019748
  68.2635897   1.6301217  51.8472016  68.5395741   1.5157811  52.7565890
  67.3940396   1.2318702  51.8084189  64.8989961   5.8787568  55.4904829
  65.0812356   5.0609224  55.9532582  65.7222947   6.0955260  55.0529719
  65.2332127   4.8055753  52.7519878  65.7619893   4.2948207  52.1390040
  65.4960346   4.4898283  53.6165411  55.7349220   2.8219622  60.4955211
  56.3202656   2.0763310  60.6283115  55.5374058   3.1323579  61.3791875
  58.5887875   5.8570869  55.5117654  57.9198250   6.3416997  55.0281694
  58.4500745   6.1040090  56.4261032  50.3266874  -4.6074778  59.2159654
  50.3650974  -5.1411187  60.0096773  49.8207167  -5.1339572  58.5970632
  62.7293143   7.8914613  62.1100312  63.2811451   8.0546235  62.8749397
  63.0699337   8.4819051  61.4380337  67.5804018   2.7175871  67.9648966
  68.1243922   3.3305829  67.4703921  66.9990863   3.2755449  68.4815979
  65.8661531   5.8396589  59.0963994  65.7412670   5.0386328  58.5874940
  66.5240622   6.3342782  58.6077964  67.9296439   3.6405609  60.7243544
  66.9826775   3.5210960  60.6521871  68.2779212   2.7528107  60.8069806
  64.9342872   3.4358325  56.9247897  64.7867835   2.5075032  57.1055467
  65.7596366   3.4578416  56.4404972  68.5376994   4.2586884  58.0112769
  69.4623542   4.0529745  57.8737220  68.3692298   4.0103285  58.9202111
  68.3272310   4.7772551  53.3674861  68.5009188   4.2118974  52.6148713
  68.8201202   5.5773446  53.1854351  54.1449270  -3.2112780  61.4338420
  53.6002738  -2.4352972  61.5658694  55.0228620  -2.8641975  61.2757541
  69.3147483   4.0939315  50.4671759  70.0098388   4.7146008  50.6859074
  69.6570633   3.2434667  50.7424137  54.9315292  -4.0842884  64.3268576
  54.1897028  -3.9360248  64.9133207  54.6108036  -3.8234618  63.4635326
  62.8758955   5.4573095  64.1248966  63.1846081   5.2122241  64.9971666
  63.6734437   5.6619733  63.6367837  62.8979567   7.6111004  56.3554343
  62.4584557   7.1187383  57.0487200  63.6487684   7.0683972  56.1146418
  55.3771906   3.8022545  56.3578971  56.2029926   3.5026317  55.9777615
  55.0265958   3.0330168  56.8068760  60.3453439   3.1549013  58.4276645
  59.7233448   2.4919718  58.1278872  61.0158306   3.1810145  57.7450292
  53.5780511   1.7208872  57.3167905  52.7412419   1.2931046  57.1351906
  53.5504156   1.9141315  58.2538696  70.9032812   2.1771925  67.3010288
  70.1128356   2.1596063  66.7614787  70.6666167   2.7160218  68.0559324
  59.9066946   1.7052937  51.9035105  60.0555066   2.3888401  51.2501778
  60.7133389   1.6858027  52.4184561  57.6619579  -2.2681886  52.9096174
  57.4165621  -3.1719556  53.1076384  57.8315493  -2.2664735  51.9675652
  63.4062351   4.2001067  49.3746853  62.8336318   4.8191254  48.9217324
  63.9795145   4.7500429  49.9086775  66.6259611   4.4838217  50.5055435
  67.5590284   4.4183779  50.7088310  66.5382824   5.3194484  50.0469968
  69.2547628   3.8004088  47.4659382  69.1761259   3.4663951  48.3595140
  70.0757295   4.2925855  47.4650855  56.6709915  -2.5019339  60.8186343
  56.8895925  -1.5702232  60.8374377  57.0835689  -2.8611365  61.6041147
  52.7618267  -1.5978869  59.0709958  52.0681739  -2.0124916  58.5579913
  53.5091258  -1.5558332  58.4743377  54.6755010  -1.6660615  56.9475973
  54.6525698  -1.5672928  55.9957856  54.9855646  -0.8195464  57.2693139
  57.3342388   0.3915540  61.0622588  58.2885641   0.3599482  60.9952519
  57.1354911  -0.0693836  61.8772813  57.9241770  -1.0383344  63.6293385
  58.7434659  -0.5439265  63.6528223  58.1978578  -1.9551376  63.6010953
  55.6892617   5.9335159  58.0792785  55.5547085   5.1735560  57.5130783
  55.2724679   6.6576059  57.6121574  66.8251580   1.1172083  47.0869361
  67.5287430   1.3222085  47.7027016  66.1014228   1.6848845  47.3518444
  58.8461742   6.8304476  58.2911228  58.7294127   7.7749909  58.1889918
  58.0254189   6.5278038  58.6797027  68.7338277   1.5554612  49.1367821
  69.5683881   1.1235811  48.9545296  68.5722620   1.3836626  50.0644715
  65.7030076   0.3635637  69.8277723  66.5721236   0.5376290  69.4664358
  65.2236828   1.1830054  69.7053452  59.8716257   7.4832738  61.5067157
  60.7743503   7.5156349  61.8233651  59.6453627   6.5533189  61.5213492
  61.6269859   6.2363725  58.1677235  60.6765490   6.2365587  58.0541607
  61.9302345   5.4896459  57.6513270  77.3622552  12.0724263  59.2322998
  78.0000962  11.9531011  58.5286338  77.2443395  13.0205107  59.2910950
  74.1712258  12.0251691  59.1684522  73.8330770  11.9092756  58.2805057
  75.0402027  11.6242856  59.1485528  70.0299074  13.8787168  55.1581413
  69.4663939  13.7877105  54.3897701  69.9151469  13.0587072  55.6383906
  74.6532041  13.1786543  65.1270728  74.6420682  12.7839341  64.2551231
  74.8152681  12.4452616  65.7204499  67.5763506  15.3738359  57.9965634
  68.3684798  15.0329184  57.5811933  67.8160156  15.4833334  58.9167787
  75.6098633  17.5458136  50.4695878  74.9586613  18.1312216  50.0829892
  76.4042996  18.0764330  50.5290916  69.5354260  14.6347273  50.8683012
  70.3085136  14.0876260  50.7295888  69.8879659  15.4991522  51.0797474
  71.3739303  15.9623655  64.0749912  71.0829169  16.8669286  63.9596578
  72.0096287  16.0040183  64.7893981  72.2995509  13.3400503  60.6651271
  72.8959082  13.1156526  59.9508234  72.3570481  12.5985249  61.2676719
  71.8720538  10.7939939  48.5001462  72.1246058  10.2721460  47.7384925
  70.9345097  10.6306084  48.6028146  76.9163821   9.7975717  56.3076206
  77.7026910   9.3795140  55.9566623  77.1802525  10.7021809  56.4757854
  77.0873898  15.2348567  51.0064862  76.4519731  15.3083194  51.7185767
  76.7571304  15.8242166  50.3283942  82.3172248   9.7350950  57.2109184
  83.0497420   9.1650167  57.4447014  81.5611603   9.3472551  57.6515690
  71.5916827  12.6968045  50.7025837  71.4753085  12.0212948  51.3706922
  71.7019086  12.2100419  49.8857990  73.9348367  12.1578192  54.4072527
  73.5706575  11.6308813  55.1185448  74.7915483  11.7676661  54.2339012
  73.5753854   7.1868092  49.4033875  73.7428257   8.0548328  49.7704346
  73.3851024   7.3495373  48.4795164  76.3329188  15.6485070  61.0699705
  76.0329911  16.5510109  60.9615513  75.9880247  15.3817254  61.9220858
  69.7841669  12.0998867  57.1036410  68.8592166  11.9675081  57.3114102
  70.0326082  12.8793087  57.6006352  79.7326331   8.1667611  58.7497143
  78.8243209   8.0983019  58.4555904  79.6813927   8.6439556  59.5778968
  73.5543075   9.6425749  50.3880542  73.4342701  10.0882800  51.2266022
  72.8595664   9.9911067  49.8294080  67.1450480  11.7432141  57.9380199
  67.2742861  11.9966620  58.8519611  66.4647931  12.3359849  57.6184854
  71.3149967  22.4129391  54.0370673  71.2373997  23.3637216  54.1159154
  70.7111611  22.0675263  54.6945599  73.8067197   9.5857256  66.6932040
  73.0300531  10.1451176  66.6834905  74.4457760  10.0714039  67.2146910
  81.5987978   6.3684049  60.5275017  80.9562358   6.6616582  59.8814811
  81.0942906   6.2536969  61.3328213  79.2528141  10.1147222  51.2160876
  80.1645998  10.3474609  51.0408573  78.7437789  10.6984266  50.6535955
  72.0613569  12.3942710  66.2550007  72.8028254  12.9327754  65.9784831
  71.3550555  13.0208998  66.4121559  77.5368909  14.5371850  64.8522169
  77.9452265  14.0954261  64.1076801  76.8146171  13.9624478  65.1056361
  73.8899979   9.4744457  62.2255725  74.7361174   9.8983870  62.3690374
  73.8298617   8.8178081  62.9194289  77.8597724  15.0973041  58.6074457
  77.2306586  15.2618755  57.9050525  77.4723386  15.5114650  59.3785421
  81.7386956  16.0327479  55.9618821  81.0537994  16.4126380  55.4115854
  81.8230805  16.6422805  56.6950769  77.0399425   7.1348825  63.8836899
  76.7960356   7.8890886  63.3471175  77.3159355   7.5134173  64.7184146
  78.9937887  13.6787438  62.5614165  79.2054783  14.3219197  61.8848546
  78.9467636  12.8449754  62.0936095  76.5964116   6.2905258  59.4650737
  75.7348595   6.5886512  59.7567474  76.6226551   6.5075657  58.5331769
  73.4125686  14.8347449  55.8724543  73.8764031  15.1135152  55.0829165
  73.1482484  13.9330893  55.6897633  70.3049767  14.3818930  58.8104306
  70.8751124  14.8106199  58.1721790  70.8957879  14.1001515  59.5088491
  72.3494572  10.9570601  52.6814108  73.0518615  11.4091645  53.1488034
  72.0175200  10.3154420  53.3094001  70.7974933   9.5482358  67.0565317
  70.1673594  10.2298639  67.2900714  70.6911021   9.4365439  66.1118455
  66.0919906   9.2154154  57.9831241  65.3018960   9.4711682  57.5071352
  66.5831153  10.0302492  58.0883282  80.1083715  16.5559393  60.7336522
  80.9301159  16.1539580  60.4519204  80.1046118  16.4527627  61.6852638
  68.0434651   9.5798733  54.9414718  67.2465814   9.6917427  55.4598214
  67.8160243   9.9185385  54.0755608  73.8740319  16.1043436  62.8897233
  73.9384751  16.5663844  63.7255404  73.1651243  15.4740801  63.0179542
  64.3757609   9.4684644  60.4146232  64.6265647  10.3531654  60.6803808
  64.9117157   9.2889246  59.6421324  88.1989708  12.8998141  57.0821494
  87.4453417  12.3305540  56.9265498  88.3337249  12.8660806  58.0292128
  73.5888336  17.7711544  52.7576213  73.4534011  18.6163079  53.1861061
  74.1298149  17.9730821  51.9942147  70.0755676   3.8503124  69.4190568
  69.6822622   3.2969322  70.0938212  70.8921816   4.1613702  69.8097086
  67.0417734  15.2886982  53.3304138  67.5542254  16.0830232  53.4809703
  67.6940447  14.5913272  53.2637739  68.8512618  18.4052738  55.4126891
  69.0279247  19.3270703  55.2247875  69.6469452  18.0911157  55.8421271
  72.9923637   5.2661003  67.0110825  73.7333350   5.8668156  66.9315287
  73.2241560   4.5238640  66.4528867  68.1364975  10.4517370  65.2889054
  68.0218490   9.5502627  65.5896153  67.2809493  10.6981067  64.9373871
  75.2156813  18.3935110  66.8876555  74.7720667  17.6071489  66.5697459
  75.8774026  18.5814261  66.2220446  69.9743934  19.9230912  61.4137233
  70.5251359  19.7947975  60.6414227  69.1355410  20.2225801  61.0632126
  77.3138051  18.6737910  64.9157956  77.2956526  19.4946791  64.4238225
  78.2357971  18.5491985  65.1408097  73.7711105  16.1882040  65.7581465
  74.3039442  15.4270328  65.5280773  73.2425186  15.8955691  66.5005619
  65.0066651  13.6175636  54.1063708  65.8441873  14.0272644  53.8897416
  65.1844918  12.6775078  54.0763902  76.9031083  11.2850717  49.7947541
  76.3877706  12.0555321  50.0335929  76.6308391  10.6115853  50.4180603
  74.4878194   6.1300418  54.8532780  73.6319790   5.7407268  54.6738419
  74.9005145   6.2092378  53.9932565  76.0177340   3.6646761  59.2524340
  75.5142136   3.6276896  58.4392145  76.3107947   4.5739504  59.3120996
  72.2620226   3.7485491  58.2590521  73.1273223   3.5528299  57.8996411
  72.3297735   3.5195842  59.1859878  81.8765357  14.0383071  51.7300715
  81.0994800  13.6994231  51.2855877  82.5556838  14.0435695  51.0555680
  76.6917386   9.1577809  51.6207323  76.3867521   9.4723958  52.4717466
  77.6447828   9.2359229  51.6634656  75.1363818  15.3168032  53.2700277
  74.6085179  14.5820792  52.9573514  74.6351320  16.0942709  53.0240245
  80.1156664  13.5117053  58.3867323  79.4580338  14.2016314  58.4747452
  80.9197063  13.9013485  58.7301309  69.8682545   5.9787698  55.6306888
  70.4426297   5.7562880  54.8980081  70.4553528   6.0476393  56.3835489
  78.9262122  11.8661425  56.4371265  79.4394004  12.4991417  56.9392974
  79.5763346  11.2662621  56.0714625  70.1952132   8.0092159  49.6502773
  69.3589445   8.3466846  49.9712048  70.0556902   7.8741139  48.7129910
  72.1705213   2.8528947  54.3581958  71.5169625   2.5377965  53.7338572
  72.1285687   2.2304688  55.0841780  73.2816418  13.1348242  46.2735250
  72.3743480  12.9037496  46.4726399  73.7787450  12.3385862  46.4609231
  76.1884497  21.8445750  49.1931936  75.5146195  22.1477446  49.8016894
  76.5750319  22.6474830  48.8437393  75.4042953   9.3410881  58.6829605
  74.4865515   9.5625828  58.5251293  75.8203097   9.4157191  57.8241313
  76.1878001  10.7402297  53.8132285  76.9349820  11.2523694  53.5039407
  76.4569591  10.4186349  54.6736679  74.4604651  13.2360837  50.7959240
  73.5515871  12.9519870  50.8931709  74.4899735  13.6559916  49.9362547
  79.6923919  16.8467427  54.5650407  79.2386246  16.0058337  54.6215598
  79.0617885  17.4828825  54.9025187  78.6356838   7.7759413  55.7951075
  77.8979595   7.2636799  56.1261317  78.8883612   7.3359794  54.9834352
  78.1356858  18.6843923  55.5000225  78.4279832  19.2448981  54.7812591
  78.6455478  18.9772484  56.2553385  65.0292822  10.9566351  54.7774442
  64.8317221  10.3635712  54.0525508  64.4739486  10.6518562  55.4950381
  73.0089545  10.8489458  56.8969035  73.0638155   9.8963294  56.8211512
  72.1980747  11.0048897  57.3810333  74.1580739  14.7769581  48.1347318
  73.7200169  14.0605440  47.6752956  74.8991180  15.0045696  47.5732410
  70.9481905   9.4666518  54.6559414  70.1349771   9.7660688  55.0624606
  71.4440899   9.0722206  55.3733896  73.0990483  19.4624275  56.5893679
  73.0566662  19.6885121  55.6602211  74.0153182  19.2287649  56.7379480
  76.5456117   9.9308342  63.4874308  76.9005505  10.1579815  64.3468774
  77.1928248  10.2626719  62.8651563  82.2753854  13.0526778  54.1923637
  82.1371752  13.2428374  53.2644826  81.9190073  13.8146161  54.6491688
  70.4395980   7.0384873  60.2720649  71.0795359   6.8973632  59.5743612
  69.6073511   6.7519387  59.8959251  82.3023233  15.1203305  59.2034908
  82.7359740  15.0278594  60.0517962  83.0154814  15.0960805  58.5654924
  71.2156284  16.3387304  56.3855641  72.0096882  15.8437624  56.1838216
  70.5047976  15.8105167  56.0223347  76.0351128  18.7205399  60.7368009
  76.0888151  19.2896335  61.5045725  75.1665910  18.8907284  60.3722046
  67.5239047  10.4830385  52.4615394  66.5936635  10.4214841  52.6785356
  67.6196519   9.9606338  51.6652035  67.4424596   7.0085198  55.0493636
  67.7031414   7.9230531  54.9402796  68.2641769   6.5409641  55.1990249
  68.9149522   8.4222955  62.2192460  69.5872575   8.2140317  61.5705109
  68.0879308   8.2245041  61.7797693  83.1638783  15.1627006  61.7367794
  83.3574673  16.0672816  61.9827069  83.0639401  14.7034425  62.5706379
  74.8175094   5.0484896  64.2358121  74.1703009   5.7474846  64.1422598
  75.5876109   5.4821040  64.6034369  78.2253892  15.3133748  67.3108674
  78.0739398  15.0844300  66.3938758  78.2158571  16.2704350  67.3240019
  74.9939228  12.8865661  62.2954941  75.9231288  13.0376821  62.1223908
  74.5730258  12.9749682  61.4403587  73.7927560  16.9116326  60.0653478
  73.6538646  16.5435110  60.9379417  73.0042156  17.4263965  59.8937436
  74.3875712  22.0125422  51.4079015  74.5627468  21.5413465  52.2224638
  73.7008500  22.6391188  51.6360276  75.3432775  16.2897928  57.4542316
  75.0082608  16.2498698  58.3499966  74.8436721  15.6242644  56.9812726
  69.3177019  11.6965558  62.9794897  69.1796817  10.9645797  63.5806436
  70.2281942  11.6074458  62.6979085  78.2791967  13.6353963  47.7279376
  77.6621137  12.9100791  47.6312429  77.8108455  14.3963323  47.3846450
  71.9459320  11.4085518  62.4678577  72.6558938  10.7678710  62.4265195
  71.9028628  11.6598412  63.3904758  79.9346098  18.3452871  65.3885156
  79.8758644  17.6612091  64.7215739  80.3365617  19.0871861  64.9365782
  70.6588254   8.3950735  64.2874217  70.1225611   7.9441474  64.9395813
  70.0704962   8.5296644  63.5444681  68.9536797  25.1614785  58.1818875
  69.1933395  25.7933309  58.8597894  68.1105994  24.8102825  58.4684234
  70.0690513   7.8539387  46.8500680  69.1919979   7.7328188  46.4862927
  70.5448266   7.0625465  46.5979569  79.9363506  16.3092455  63.6199136
  79.0490284  15.9718377  63.7425535  80.5062057  15.5775486  63.8567901
  61.5892653  12.6416547  56.9442187  62.2763693  12.3278277  56.3563203
  61.4340781  13.5457911  56.6709439  66.3927375   7.5306743  61.3727211
  66.3085564   6.9232413  60.6377621  65.5710081   8.0215762  61.3736707
  73.4664659  20.9693907  60.5860379  73.3934830  21.7748879  61.0979684
  73.0242052  21.1685873  59.7608401  73.2554439  20.2065677  54.0963201
  72.4721961  20.7487357  54.1901425  73.9547184  20.7239657  54.4957442
  76.5651089   6.0160307  56.7397406  77.0619788   5.2630269  56.4198476
  75.7938070   6.0524623  56.1740615  84.4180846  11.7200672  58.3815698
  84.4070722  12.6025388  58.0109631  83.5498226  11.3672223  58.1870235
  75.9263343  20.8680741  62.7418538  76.6391315  21.5028206  62.6694439
  75.4353371  20.9644607  61.9258540  77.6480869  14.7731994  54.3135829
  76.7137148  14.8933456  54.1440534  77.8257538  13.8704461  54.0495839
  73.1486057   8.1577690  56.4669091  72.7783845   7.6048730  57.1549996
  73.6445150   7.5535823  55.9144091  81.0353421  10.6149313  54.8485864
  81.5013873  11.4477305  54.7746166  81.4860921  10.1494295  55.5531122
  70.9775256  18.6175185  63.5624109  71.6784716  19.2511668  63.7153503
  70.5070371  18.9589916  62.8019748  79.1029652  16.9593135  51.8472016
  79.3789496  16.8449729  52.7565890  78.2334151  16.5610619  51.8084189
  78.7776542  11.1719792  61.3876659  78.1247992  11.4195700  60.7329112
  79.1556922  10.3583930  61.0539136  75.7383716  21.2079485  55.4904829
  75.9206110  20.3901141  55.9532582  76.5616702  21.4247178  55.0529719
  76.0725881  20.1347670  52.7519878  76.6013648  19.6240125  52.1390040
  76.3354101  19.8190201  53.6165411  74.8264115  11.9139603  67.8742696
  74.1504752  11.8133733  68.5445071  75.6491749  11.7578817  68.3378693
  66.5742974  18.1511540  60.4955211  67.1596411  17.4055228  60.6283115
  66.3767813  18.4615496  61.3791875  69.4281629  21.1862787  55.5117654
  68.7592005  21.6708915  55.0281694  69.2894499  21.4332008  56.4261032
  61.1660629  10.7217140  59.2159654  61.2044728  10.1880731  60.0096773
  60.6600922  10.1952346  58.5970632  73.5686898  23.2206531  62.1100312
  74.1205206  23.3838152  62.8749397  73.9093091  23.8110969  61.4380337
  68.5451391   5.5681680  62.7122197  68.6092718   6.4296511  62.2999594
  68.4818511   4.9555682  61.9794555  68.0203664   7.6404813  66.3595231
  68.6475702   7.2581890  66.9732755  67.1631583   7.4219015  66.7250923
  78.4197772  18.0467788  67.9648966  78.9637676  18.6597746  67.4703921
  77.8384617  18.6047367  68.4815979  64.7969206   9.4481242  52.2913586
  65.0922648   8.5391921  52.2380640  63.8957242   9.4268982  51.9694588
  76.7055285  21.1688506  59.0963994  76.5806425  20.3678246  58.5874940
  77.3634376  21.6634700  58.6077964  68.3263453   7.5237239  58.2741134
  67.6050039   8.1373206  58.1348608  69.1156709   8.0595004  58.1957780
  78.7690194  18.9697526  60.7243544  77.8220529  18.8502877  60.6521871
  79.1172967  18.0820024  60.8069806  71.1289767   4.8591665  64.5481786
  71.6524169   5.1053962  65.3108095  70.9102100   5.6911700  64.1284924
  66.5257048   7.1295340  52.4152911  66.1969754   6.2492719  52.2328017
  66.8796419   7.0743009  53.3029300  75.7736627  18.7650243  56.9247897
  75.6261589  17.8366950  57.1055467  76.5990120  18.7870333  56.4404972
  69.6398871   7.4168310  52.7828389  69.9794944   7.9454231  52.0606997
  70.0870992   7.7548716  53.5586955  79.3770749  19.5878801  58.0112769
  80.3017296  19.3821663  57.8737220  79.2086052  19.3395202  58.9202111
  72.3342312   5.8005360  62.2331457  71.9939132   5.0013173  62.6352137
  71.6281318   6.1007071  61.6608290  71.6267018   5.9142931  50.9821681
  72.3475381   6.2924184  50.4785398  71.0032322   6.6331808  51.0856659
  75.7698141   6.6188080  51.9180014  75.9861756   7.5012718  51.6168842
  75.2892208   6.2274294  51.1885656  70.5097363   9.5773793  58.4950758
  70.3641943   9.8914096  59.3875040  70.0322566  10.1958694  57.9421657
  72.3693745   6.5676341  58.5431648  72.3555314   5.6717435  58.2063946
  73.0866174   6.5747005  59.1769934  74.2219876   7.0013682  60.5884775
  73.9637654   7.9230752  60.5869106  73.6904917   6.6044116  61.2785239
  79.1666065  20.1064469  53.3674861  79.3402942  19.5410891  52.6148713
  79.6594956  20.9065364  53.1854351  64.9843025  12.1179138  61.4338420
  64.4396493  12.8938946  61.5658694  65.8622375  12.4649942  61.2757541
  71.7730641   5.4490722  53.8119218  71.8946553   4.5207368  54.0110106
  71.4832684   5.4629408  52.8997533  85.0205456  12.8700892  54.9865160
  85.4636602  12.1208217  54.5884284  84.1431966  12.8611028  54.6038892
  80.1541237  19.4231233  50.4671759  80.8492142  20.0437926  50.6859074
  80.4964388  18.5726584  50.7424137  65.7709047  11.2449034  64.3268576
  65.0290783  11.3931669  64.9133207  65.4501791  11.5057300  63.4635326
  82.0532661  16.8730939  51.9959090  82.5783985  17.2118211  51.2708410
  81.9655013  15.9377954  51.8122224  73.7152709  20.7865012  64.1248966
  74.0239836  20.5414159  64.9971666  74.5128191  20.9911651  63.6367837
  73.7373321  22.9402922  56.3554343  73.2978312  22.4479301  57.0487200
  74.4881438  22.3975890  56.1146418  66.2165660  19.1314463  56.3578971
  67.0423680  18.8318235  55.9777615  65.8659712  18.3622085  56.8068760
  71.1847193  18.4840931  58.4276645  70.5627203  17.8211636  58.1278872
  71.8552060  18.5102063  57.7450292  64.4174265  17.0500789  57.3167905
  63.5806174  16.6222964  57.1351906  64.3897911  17.2433233  58.2538696
  71.2571721   6.9622719  68.0209151  71.3059876   7.8384842  67.6386920
  71.7994235   6.4200112  67.4480794  81.7426567  17.5063842  67.3010288
  80.9522110  17.4887981  66.7614787  81.5059921  18.0452136  68.0559324
  81.8624442  14.3556309  64.6143016  81.9122447  14.1906316  65.5558539
  81.7538365  13.4883568  64.2240897  70.7460700  17.0344854  51.9035105
  70.8948821  17.7180319  51.2501778  71.5527144  17.0149944  52.4184561
  79.1528204  10.3387237  65.9302323  80.0538067  10.1993702  65.6386321
  79.2276179  10.5041692  66.8700500  73.4871009   7.7154091  64.7755509
  72.6174319   8.0087657  64.5038098  73.7230490   8.2994536  65.4962773
  83.3642638  16.7753250  64.8585038  83.0727447  17.1383231  65.6948499
  82.7514770  16.0620258  64.6798370  84.5638321  14.3406130  57.3787608
  85.3985212  14.7795934  57.5425168  84.6997450  13.8644783  56.5595854
  81.6129827  11.8985865  63.3265096  82.0883948  12.0913511  62.5183947
  80.6895392  11.9545051  63.0808479  68.5013333  13.0610032  52.9096174
  68.2559375  12.1572362  53.1076384  68.6709248  13.0627182  51.9675652
  76.1910043   3.9333708  62.2920930  76.7091987   4.6694735  61.9667418
  75.8365176   4.2397702  63.1267689  67.7708981   8.7938390  50.4082336
  67.0778226   8.8682745  49.7522371  67.5260733   8.0298733  50.9303852
  74.2456106  19.5292985  49.3746853  73.6730073  20.1483172  48.9217324
  74.8188900  20.0792346  49.9086775  80.3131496   8.7751625  61.5593401
  81.2648919   8.8749723  61.5805625  80.1434946   7.9829893  62.0691486
  78.3345875   5.8607208  61.7452802  77.7395807   6.1412221  61.0499291
  78.0495572   6.3501109  62.5169543  77.4653366  19.8130135  50.5055435
  78.3984039  19.7475697  50.7088310  77.3776578  20.6486402  50.0469968
  80.0941382  19.1296005  47.4659382  80.0155014  18.7955869  48.3595140
  80.9151049  19.6217773  47.4650855  82.7919574  11.9957745  60.6735701
  82.7595894  11.0573745  60.8595385  83.4020197  12.0741781  59.9401526
  74.6302904  10.8653798  46.7162905  75.5762009  10.7360006  46.7851323
  74.2517149  10.1268459  47.1932333  82.9414062   8.7868788  60.7193984
  82.4253111   8.0027245  60.5323913  83.8254011   8.4587505  60.8840504
  88.6096123  13.0573751  59.8141738  89.3399512  12.7959040  60.3749441
  88.0003069  12.3202473  59.8543806  86.6911420  11.1981614  60.4116189
  85.9644584  11.0637579  59.8032681  86.2758707  11.5058443  61.2172907
  74.5141597  14.9171544  68.1763562  75.4344606  15.0950143  68.3703609
  74.4791180  13.9727589  68.0243261  72.8145822   8.7903774  46.6517790
  71.9077277   8.4936887  46.7280504  73.0921803   8.4933592  45.7852077
  63.7323762  10.1110137  57.1016837  63.4126546   9.2575446  56.8091211
  63.1857190  10.3258715  57.8574804  67.5103669  12.8272578  60.8186343
  67.7289679  13.7589686  60.8374377  67.9229443  12.4680553  61.6041147
  74.4307887   3.3340664  52.8062032  73.6208616   2.9887749  53.1817278
  75.1192304   3.0248207  53.3949643  72.3831535   8.4005784  70.2089092
  72.2828262   9.3500141  70.1401183  72.1653077   8.0724023  69.3365162
  71.5844606   5.6490709  46.7929770  72.4463770   5.9745607  47.0525587
  71.7694950   4.8622205  46.2802835  63.6012022  13.7313049  59.0709958
  62.9075493  13.3167002  58.5579913  64.3485013  13.7733585  58.4743377
  72.2462805  11.8302923  69.0254154  71.7629887  12.6303283  69.2318043
  72.3323744  11.8410868  68.0721598  65.5148764  13.6631303  56.9475973
  65.4919453  13.7618990  55.9957856  65.8249401  14.5096453  57.2693139
  68.1736142  15.7207458  61.0622588  69.1279396  15.6891400  60.9952519
  67.9748666  15.2598081  61.8772813  68.7635524  14.2908574  63.6293385
  69.5828413  14.7852652  63.6528223  69.0372332  13.3740542  63.6010953
  78.5202121   6.6819326  52.9921341  77.6327976   6.9668977  52.7741536
  78.9356110   6.5213089  52.1448618  81.8716657   6.7065847  56.7075680
  82.6477047   7.1962299  56.9800297  81.1464791   7.1323901  57.1647550
  84.3089215   7.4193466  57.7649621  84.9033706   7.1789202  57.0542929
  84.3815799   6.7000597  58.3923157  66.5286371  21.2627077  58.0792785
  66.3940839  20.5027478  57.5130783  66.1118433  21.9867977  57.6121574
  77.6645334  16.4464001  47.0869361  78.3681184  16.6514003  47.7027016
  76.9407983  17.0140763  47.3518444  78.4943144  12.1973862  53.2071631
  78.4378346  12.6542413  52.3679263  79.0471487  11.4364547  53.0294474
  82.3047950   7.9863594  54.0321750  82.0484885   7.5860229  54.8629958
  81.6800818   8.7007388  53.9071890  86.6160288  10.7259667  56.5393042
  86.0559846  10.7952856  57.3124604  86.0103792  10.5500652  55.8192538
  69.6855497  22.1596394  58.2911228  69.5687881  23.1041827  58.1889918
  68.8647943  21.8569956  58.6797027  79.5732032  16.8846530  49.1367821
  80.4077635  16.4527728  48.9545296  79.4116374  16.7128544  50.0644715
  79.2277924  13.3878643  50.5024160  79.1726727  13.2222915  49.5612604
  78.6023979  14.0954676  50.6586350  64.0170439   8.6246708  64.3285582
  64.6629302   8.1145662  64.8172807  63.8087590   9.3615389  64.9029008
  76.5423831  15.6927555  69.8277723  77.4114991  15.8668207  69.4664358
  76.0630582  16.5121972  69.7053452  72.5374049   2.8886752  50.0809478
  72.5252719   3.8328592  50.2377749  73.4297471   2.7056898  49.7868940
  70.7110011  22.8124656  61.5067157  71.6137258  22.8448266  61.8233651
  70.4847381  21.8825107  61.5213492  72.4663613  21.5655643  58.1677235
  71.5159244  21.5657504  58.0541607  72.7696099  20.8188377  57.6513270
  68.3567930   5.7714325  68.4260597  69.2199391   5.4151129  68.6363921
  67.7833340   5.4328219  69.1136001  88.2016307  27.4016181  59.2322998
  88.8394717  27.2822928  58.5286338  88.0837149  28.3497025  59.2910950
  85.0106013  27.3543609  59.1684522  84.6724524  27.2384674  58.2805057
  85.8795781  26.9534774  59.1485528  80.8692829  29.2079085  55.1581413
  80.3057694  29.1169022  54.3897701  80.7545224  28.3878990  55.6383906
  85.4925796  28.5078461  65.1270728  85.4814437  28.1131259  64.2551231
  85.6546435  27.7744533  65.7204499  78.4157261  30.7030277  57.9965634
  79.2078552  30.3621102  57.5811933  78.6553911  30.8125252  58.9167787
  86.4492387  32.8750053  50.4695878  85.7980367  33.4604134  50.0829892
  87.2436750  33.4056248  50.5290916  80.3748014  29.9639190  50.8683012
  81.1478890  29.4168177  50.7295888  80.7273413  30.8283440  51.0797474
  82.2133057  31.2915573  64.0749912  81.9222923  32.1961203  63.9596578
  82.8490041  31.3332100  64.7893981  83.1389264  28.6692421  60.6651271
  83.7352836  28.4448444  59.9508234  83.1964235  27.9277167  61.2676719
  82.7114292  26.1231856  48.5001462  82.9639813  25.6013378  47.7384925
  81.7738851  25.9598002  48.6028146  87.7557575  25.1267635  56.3076206
  88.5420664  24.7087058  55.9566623  88.0196279  26.0313727  56.4757854
  87.9267652  30.5640485  51.0064862  87.2913485  30.6375112  51.7185767
  87.5965059  31.1534084  50.3283942  93.1566002  25.0642868  57.2109184
  93.8891174  24.4942085  57.4447014  92.4005358  24.6764468  57.6515690
  82.4310581  28.0259962  50.7025837  82.3146839  27.3504866  51.3706922
  82.5412841  27.5392336  49.8857990  84.7742122  27.4870110  54.4072527
  84.4100329  26.9600730  55.1185448  85.6309238  27.0968579  54.2339012
  90.6791423  18.7764442  61.6703793  90.3474747  19.6459853  61.4465008
  90.0837036  18.4600726  62.3497823  84.4147609  22.5160009  49.4033875
  84.5822011  23.3840246  49.7704346  84.2244778  22.6787291  48.4795164
  87.1722942  30.9776988  61.0699705  86.8723665  31.8802027  60.9615513
  86.8274002  30.7109171  61.9220858  80.6235424  27.4290785  57.1036410
  79.6985920  27.2966999  57.3114102  80.8719837  28.2085004  57.6006352
  90.5720086  23.4959528  58.7497143  89.6636963  23.4274937  58.4555904
  90.5207682  23.9731473  59.5778968  84.3936830  24.9717667  50.3880542
  84.2736455  25.4174717  51.2266022  83.6989418  25.3202984  49.8294080
  77.9844235  27.0724059  57.9380199  78.1136616  27.3258537  58.8519611
  77.3041686  27.6651767  57.6184854  82.1543722  37.7421308  54.0370673
  82.0767752  38.6929134  54.1159154  81.5505365  37.3967181  54.6945599
  84.6460952  24.9149174  66.6932040  83.8694286  25.4743094  66.6834905
  85.2851515  25.4005957  67.2146910  92.4381732  21.6975967  60.5275017
  91.7956113  21.9908500  59.8814811  91.9336661  21.5828887  61.3328213
  90.0921896  25.4439140  51.2160876  91.0039752  25.6766527  51.0408573
  89.5831543  26.0276184  50.6535955  82.9007324  27.7234627  66.2550007
  83.6422008  28.2619671  65.9784831  82.1944309  28.3500916  66.4121559
  88.3762664  29.8663768  64.8522169  88.7846020  29.4246178  64.1076801
  87.6539925  29.2916395  65.1056361  84.7293734  24.8036374  62.2255725
  85.5754929  25.2275788  62.3690374  84.6692371  24.1469999  62.9194289
  88.6991478  30.4264958  58.6074457  88.0700341  30.5910672  57.9050525
  88.3117140  30.8406568  59.3785421  92.5780710  31.3619396  55.9618821
  91.8931748  31.7418298  55.4115854  92.6624559  31.9714723  56.6950769
  87.8793179  22.4640743  63.8836899  87.6354111  23.2182803  63.3471175
  88.1553110  22.8426090  64.7184146  89.8331642  29.0079355  62.5614165
  90.0448537  29.6511115  61.8848546  89.7861390  28.1741672  62.0936095
  87.4357871  21.6197176  59.4650737  86.5742350  21.9178429  59.7567474
  87.4620305  21.8367575  58.5331769  84.2519440  30.1639366  55.8724543
  84.7157786  30.4427069  55.0829165  83.9876238  29.2622811  55.6897633
  81.1443521  29.7110848  58.8104306  81.7144878  30.1398116  58.1721790
  81.7351633  29.4293433  59.5088491  83.1888326  26.2862519  52.6814108
  83.8912370  26.7383562  53.1488034  82.8568955  25.6446338  53.3094001
  81.6368688  24.8774275  67.0565317  81.0067348  25.5590556  67.2900714
  81.5304776  24.7657357  66.1118455  76.9313660  24.5446071  57.9831241
  76.1412714  24.8003600  57.5071352  77.4224908  25.3594409  58.0883282
  90.9477470  31.8851311  60.7336522  91.7694913  31.4831498  60.4519204
  90.9439873  31.7819545  61.6852638  78.8828406  24.9090651  54.9414718
  78.0859569  25.0209345  55.4598214  78.6553998  25.2477303  54.0755608
  84.7134073  31.4335354  62.8897233  84.7778506  31.8955761  63.7255404
  84.0044997  30.8032719  63.0179542  75.2151363  24.7976562  60.4146232
  75.4659402  25.6823572  60.6803808  75.7510912  24.6181163  59.6421324
  99.0383463  28.2290059  57.0821494  98.2847171  27.6597457  56.9265498
  99.1731004  28.1952724  58.0292128  84.4282091  33.1003461  52.7576213
  84.2927766  33.9454997  53.1861061  84.9691903  33.3022739  51.9942147
  80.9149430  19.1795041  69.4190568  80.5216376  18.6261240  70.0938212
  81.7315571  19.4905620  69.8097086  77.8811488  30.6178899  53.3304138
  78.3936009  31.4122150  53.4809703  78.5334201  29.9205190  53.2637739
  79.6906373  33.7344656  55.4126891  79.8673001  34.6562620  55.2247875
  80.4863206  33.4203075  55.8421271  83.8317391  20.5952920  67.0110825
  84.5727105  21.1960074  66.9315287  84.0635314  19.8530558  66.4528867
  78.9758729  25.7809288  65.2889054  78.8612245  24.8794545  65.5896153
  78.1203247  26.0272984  64.9373871  86.0550567  33.7227028  66.8876555
  85.6114421  32.9363407  66.5697459  86.7167781  33.9106178  66.2220446
  80.8137688  35.2522830  61.4137233  81.3645113  35.1239893  60.6414227
  79.9749164  35.5517719  61.0632126  88.1531805  34.0029828  64.9157956
  88.1350281  34.8238709  64.4238225  89.0751725  33.8783903  65.1408097
  84.6104859  31.5173957  65.7581465  85.1433196  30.7562246  65.5280773
  84.0818941  31.2247609  66.5005619  87.7774554  16.6234023  61.2875106
  87.4338824  17.5135665  61.2114217  88.1453517  16.4335681  60.4244691
  75.8460405  28.9467554  54.1063708  76.6835627  29.3564562  53.8897416
  76.0238673  28.0066996  54.0763902  87.7424837  26.6142634  49.7947541
  87.2271461  27.3847239  50.0335929  87.4702146  25.9407771  50.4180603
  85.3271948  21.4592335  54.8532780  84.4713544  21.0699186  54.6738419
  85.7398900  21.5384296  53.9932565  86.8571095  18.9938678  59.2524340
  86.3535890  18.9568814  58.4392145  87.1501702  19.9031421  59.3120996
  83.1013981  19.0777408  58.2590521  83.9666977  18.8820217  57.8996411
  83.1691490  18.8487760  59.1859878  92.7159111  29.3674989  51.7300715
  91.9388554  29.0286149  51.2855877  93.3950592  29.3727612  51.0555680
  87.5311140  24.4869727  51.6207323  87.2261276  24.8015876  52.4717466
  88.4841582  24.5651146  51.6634656  85.9757572  30.6459950  53.2700277
  85.4478934  29.9112709  52.9573514  85.4745075  31.4234626  53.0240245
  90.9550418  28.8408970  58.3867323  90.2974093  29.5308232  58.4747452
  91.7590817  29.2305402  58.7301309  80.7076300  21.3079616  55.6306888
  81.2820052  21.0854798  54.8980081  81.2947282  21.3768311  56.3835489
  89.7655877  27.1953343  56.4371265  90.2787759  27.8283335  56.9392974
  90.4157101  26.5954539  56.0714625  81.0345887  23.3384077  49.6502773
  80.1983199  23.6758764  49.9712048  80.8950656  23.2033057  48.7129910
  83.0098967  18.1820865  54.3581958  82.3563380  17.8669882  53.7338572
  82.9679442  17.5596605  55.0841780  84.1210172  28.4640160  46.2735250
  83.2137234  28.2329414  46.4726399  84.6181204  27.6677779  46.4609231
  87.0278251  37.1737667  49.1931936  86.3539950  37.4769364  49.8016894
  87.4144073  37.9766748  48.8437393  86.2436708  24.6702799  58.6829605
  85.3259269  24.8917746  58.5251293  86.6596851  24.7449109  57.8241313
  87.0271756  26.0694214  53.8132285  87.7743575  26.5815611  53.5039407
  87.2963345  25.7478267  54.6736679  85.2998406  28.5652755  50.7959240
  84.3909625  28.2811788  50.8931709  85.3293490  28.9851834  49.9362547
  90.5317673  32.1759344  54.5650407  90.0780000  31.3350254  54.6215598
  89.9011640  32.8120743  54.9025187  89.4750593  23.1051330  55.7951075
  88.7373350  22.5928717  56.1261317  89.7277366  22.6651712  54.9834352
  88.9750612  34.0135841  55.5000225  89.2673587  34.5740898  54.7812591
  89.4849233  34.3064402  56.2553385  89.5762220  15.8827582  56.3892844
  89.8821097  15.0224946  56.1018759  90.3014825  16.4745203  56.1891838
  75.8686576  26.2858269  54.7774442  75.6710976  25.6927630  54.0525508
  75.3133240  25.9810479  55.4950381  83.8483300  26.1781376  56.8969035
  83.9031910  25.2255212  56.8211512  83.0374502  26.3340815  57.3810333
  84.9974494  30.1061499  48.1347318  84.5593923  29.3897358  47.6752956
  85.7384934  30.3337613  47.5732410  81.7875660  24.7958435  54.6559414
  80.9743525  25.0952606  55.0624606  82.2834654  24.4014124  55.3733896
  83.9384238  34.7916192  56.5893679  83.8960416  35.0177039  55.6602211
  84.8546936  34.5579567  56.7379480  87.3849871  25.2600260  63.4874308
  87.7399259  25.4871733  64.3468774  88.0322003  25.5918637  62.8651563
  93.1147608  28.3818696  54.1923637  92.9765507  28.5720292  53.2644826
  92.7583827  29.1438078  54.6491688  81.2789734  22.3676791  60.2720649
  81.9189114  22.2265550  59.5743612  80.4467265  22.0811304  59.8959251
  93.1416988  30.4495223  59.2034908  93.5753495  30.3570512  60.0517962
  93.8548569  30.4252723  58.5654924  82.0550038  31.6679221  56.3855641
  82.8490637  31.1729541  56.1838216  81.3441731  31.1397084  56.0223347
  86.8744883  34.0497317  60.7368009  86.9281905  34.6188253  61.5045725
  86.0059664  34.2199202  60.3722046  78.3632802  25.8122303  52.4615394
  77.4330390  25.7506758  52.6785356  78.4590274  25.2898256  51.6652035
  78.2818351  22.3377116  55.0493636  78.5425168  23.2522449  54.9402796
  79.1035523  21.8701558  55.1990249  79.7543276  23.7514873  62.2192460
  80.4266330  23.5432235  61.5705109  78.9273063  23.5536959  61.7797693
  94.0032538  30.4918923  61.7367794  94.1968428  31.3964734  61.9827069
  93.9033156  30.0326342  62.5706379  85.6568848  20.3776814  64.2358121
  85.0096763  21.0766764  64.1422598  86.4269864  20.8112958  64.6034369
  89.0647646  30.6425666  67.3108674  88.9133153  30.4136218  66.3938758
  89.0552326  31.5996267  67.3240019  85.8332983  28.2157579  62.2954941
  86.7625043  28.3668738  62.1223908  85.4124013  28.3041600  61.4403587
  84.6321314  32.2408243  60.0653478  84.4932400  31.8727028  60.9379417
  83.8435911  32.7555883  59.8937436  85.2269466  37.3417340  51.4079015
  85.4021222  36.8705383  52.2224638  84.5402254  37.9683106  51.6360276
  86.1826530  31.6189846  57.4542316  85.8476362  31.5790616  58.3499966
  85.6830475  30.9534562  56.9812726  80.1570773  27.0257476  62.9794897
  80.0190571  26.2937715  63.5806436  81.0675697  26.9366376  62.6979085
  89.1185721  28.9645880  47.7279376  88.5014892  28.2392708  47.6312429
  88.6502210  29.7255241  47.3846450  82.7853074  26.7377435  62.4678577
  83.4952693  26.0970627  62.4265195  82.7422382  26.9890330  63.3904758
  90.7739853  33.6744789  65.3885156  90.7152399  32.9904009  64.7215739
  91.1759371  34.4163779  64.9365782  81.4982008  23.7242653  64.2874217
  80.9619365  23.2733392  64.9395813  80.9098717  23.8588562  63.5444681
  79.7930552  40.4906702  58.1818875  80.0327150  41.1225227  58.8597894
  78.9499748  40.1394742  58.4684234  80.9084267  23.1831305  46.8500680
  80.0313733  23.0620105  46.4862927  81.3842020  22.3917383  46.5979569
  90.7757260  31.6384373  63.6199136  89.8884039  31.3010294  63.7425535
  91.3455811  30.9067404  63.8567901  72.4286407  27.9708464  56.9442187
  73.1157447  27.6570194  56.3563203  72.2734536  28.8749829  56.6709439
  77.2321129  22.8598661  61.3727211  77.1479318  22.2524330  60.6377621
  76.4103836  23.3507679  61.3736707  84.3058413  36.2985825  60.5860379
  84.2328585  37.1040796  61.0979684  83.8635807  36.4977791  59.7608401
  84.0948193  35.5357595  54.0963201  83.3115715  36.0779275  54.1901425
  84.7940938  36.0531575  54.4957442  87.4044843  21.3452224  56.7397406
  87.9013543  20.5922187  56.4198476  86.6331825  21.3816541  56.1740615
  95.2574601  27.0492590  58.3815698  95.2464477  27.9317305  58.0109631
  94.3891980  26.6964141  58.1870235  86.7657097  36.1972659  62.7418538
  87.4785069  36.8320124  62.6694439  86.2747126  36.2936525  61.9258540
  88.4874624  30.1023912  54.3135829  87.5530903  30.2225374  54.1440534
  88.6651292  29.1996378  54.0495839  83.9879812  23.4869607  56.4669091
  83.6177599  22.9340648  57.1549996  84.4838904  22.8827741  55.9144091
  91.8747175  25.9441231  54.8485864  92.3407627  26.7769222  54.7746166
  92.3254676  25.4786212  55.5531122  81.8169011  33.9467102  63.5624109
  82.5178470  34.5803585  63.7153503  81.3464126  34.2881834  62.8019748
  89.9423406  32.2885052  51.8472016  90.2183250  32.1741647  52.7565890
  89.0727905  31.8902537  51.8084189  89.8463838  18.3121818  58.8876765
  88.9326918  18.5426045  59.0558972  90.2756939  18.3960262  59.7390797
  89.6170297  26.5011710  61.3876659  88.9641747  26.7487617  60.7329112
  89.9950676  25.6875848  61.0539136  86.5777470  36.5371403  55.4904829
  86.7599865  35.7193059  55.9532582  87.4010456  36.7539095  55.0529719
  86.9119636  35.4639588  52.7519878  87.4407402  34.9532043  52.1390040
  87.1747855  35.1482118  53.6165411  85.6657870  27.2431521  67.8742696
  84.9898507  27.1425650  68.5445071  86.4885503  27.0870735  68.3378693
  77.4136729  33.4803457  60.4955211  77.9990165  32.7347145  60.6283115
  77.2161567  33.7907414  61.3791875  80.2675384  36.5154705  55.5117654
  79.5985759  37.0000832  55.0281694  80.1288254  36.7623925  56.4261032
  72.0054383  26.0509058  59.2159654  72.0438483  25.5172648  60.0096773
  71.4994676  25.5244263  58.5970632  84.4080652  38.5498448  62.1100312
  84.9598960  38.7130070  62.8749397  84.7486846  39.1402886  61.4380337
  79.3845146  20.8973598  62.7122197  79.4486472  21.7588429  62.2999594
  79.3212266  20.2847600  61.9794555  78.8597418  22.9696731  66.3595231
  79.4869457  22.5873808  66.9732755  78.0025337  22.7510933  66.7250923
  89.2591527  33.3759706  67.9648966  89.8031431  33.9889664  67.4703921
  88.6778372  33.9339284  68.4815979  75.6362961  24.7773160  52.2913586
  75.9316402  23.8683838  52.2380640  74.7350997  24.7560899  51.9694588
  87.5449040  36.4980424  59.0963994  87.4200179  35.6970164  58.5874940
  88.2028131  36.9926617  58.6077964  79.1657208  22.8529156  58.2741134
  78.4443794  23.4665124  58.1348608  79.9550464  23.3886921  58.1957780
  89.6083948  34.2989444  60.7243544  88.6614284  34.1794795  60.6521871
  89.9566721  33.4111942  60.8069806  81.9683521  20.1883583  64.5481786
  82.4917923  20.4345879  65.3108095  81.7495855  21.0203618  64.1284924
  77.3650803  22.4587257  52.4152911  77.0363509  21.5784636  52.2328017
  77.7190173  22.4034926  53.3029300  86.6130381  34.0942160  56.9247897
  86.4655344  33.1658868  57.1055467  87.4383875  34.1162251  56.4404972
  80.4792626  22.7460227  52.7828389  80.8188698  23.2746149  52.0606997
  80.9264746  23.0840633  53.5586955  90.2164503  34.9170719  58.0112769
  91.1411051  34.7113580  57.8737220  90.0479807  34.6687120  58.9202111
  83.1736066  21.1297278  62.2331457  82.8332887  20.3305091  62.6352137
  82.4675073  21.4298989  61.6608290  83.8252538  18.2146590  60.6858780
  84.6478608  17.7407069  60.5637670  84.0690602  18.9937074  61.1857466
  82.4660773  21.2434849  50.9821681  83.1869135  21.6216102  50.4785398
  81.8426077  21.9623726  51.0856659  86.6091896  21.9479998  51.9180014
  86.8255510  22.8304636  51.6168842  86.1285963  21.5566211  51.1885656
  81.3491117  24.9065711  58.4950758  81.2035698  25.2206014  59.3875040
  80.8716321  25.5250611  57.9421657  83.2087500  21.8968259  58.5431648
  83.1949069  21.0009352  58.2063946  83.9259928  21.9038923  59.1769934
  85.0613631  22.3305599  60.5884775  84.8031408  23.2522670  60.5869106
  84.5298671  21.9336034  61.2785239  90.0059819  35.4356386  53.3674861
  90.1796697  34.8702809  52.6148713  90.4988711  36.2357281  53.1854351
  75.8236779  27.4471055  61.4338420  75.2790247  28.2230863  61.5658694
  76.7016129  27.7941860  61.2757541  82.6124396  20.7782639  53.8119218
  82.7340307  19.8499286  54.0110106  82.3226438  20.7921325  52.8997533
  85.4815586  18.4637550  56.9485938  85.5037283  18.5276883  55.9937917
  85.8983645  17.6242058  57.1426444  95.8599211  28.1992809  54.9865160
  96.3030357  27.4500135  54.5884284  94.9825721  28.1902946  54.6038892
  90.9934992  34.7523151  50.4671759  91.6885897  35.3729843  50.6859074
  91.3358142  33.9018502  50.7424137  76.6102801  26.5740952  64.3268576
  75.8684537  26.7223587  64.9133207  76.2895545  26.8349217  63.4635326
  92.8926415  32.2022856  51.9959090  93.4177739  32.5410129  51.2708410
  92.8048768  31.2669872  51.8122224  84.5546464  36.1156930  64.1248966
  84.8633590  35.8706077  64.9971666  85.3521946  36.3203568  63.6367837
  84.5767076  38.2694840  56.3554343  84.1372066  37.7771218  57.0487200
  85.3275193  37.7267807  56.1146418  77.0559415  34.4606380  56.3578971
  77.8817435  34.1610152  55.9777615  76.7053467  33.6914003  56.8068760
  82.0240948  33.8132849  58.4276645  81.4020957  33.1503554  58.1278872
  82.6945815  33.8393981  57.7450292  75.2568020  32.3792707  57.3167905
  74.4199928  31.9514881  57.1351906  75.2291665  32.5725150  58.2538696
  82.0965475  22.2914637  68.0209151  82.1453631  23.1676760  67.6386920
  82.6387990  21.7492030  67.4480794  92.5820321  32.8355760  67.3010288
  91.7915865  32.8179899  66.7614787  92.3453676  33.3744054  68.0559324
  92.7018196  29.6848226  64.6143016  92.7516201  29.5198234  65.5558539
  92.5932119  28.8175485  64.2240897  81.5854455  32.3636772  51.9035105
  81.7342575  33.0472236  51.2501778  82.3920898  32.3441862  52.4184561
  89.9921959  25.6679154  65.9302323  90.8931821  25.5285619  65.6386321
  90.0669933  25.8333609  66.8700500  84.3264764  23.0446009  64.7755509
  83.4568073  23.3379575  64.5038098  84.5624244  23.6286454  65.4962773
  94.2036393  32.1045168  64.8585038  93.9121201  32.4675148  65.6948499
  93.5908524  31.3912176  64.6798370  95.4032075  29.6698048  57.3787608
  96.2378967  30.1087852  57.5425168  95.5391204  29.1936701  56.5595854
  92.4523581  27.2277782  63.3265096  92.9277703  27.4205429  62.5183947
  91.5289147  27.2836968  63.0808479  79.3407088  28.3901950  52.9096174
  79.0953130  27.4864280  53.1076384  79.5103002  28.3919100  51.9675652
  87.0303798  19.2625626  62.2920930  87.5485742  19.9986653  61.9667418
  86.6758930  19.5689619  63.1267689  78.6102735  24.1230307  50.4082336
  77.9171980  24.1974662  49.7522371  78.3654487  23.3590651  50.9303852
  87.2816392  15.6825909  57.8121826  87.5618146  15.0149098  58.4382253
  88.0666999  15.8755004  57.2996490  85.0849860  34.8584902  49.3746853
  84.5123827  35.4775090  48.9217324  85.6582654  35.4084264  49.9086775
  91.1525250  24.1043543  61.5593401  92.1042673  24.2041640  61.5805625
  90.9828701  23.3121811  62.0691486  89.1739630  21.1899126  61.7452802
  88.5789562  21.4704138  61.0499291  88.8889326  21.6793027  62.5169543
  88.3047120  35.1422053  50.5055435  89.2377793  35.0767614  50.7088310
  88.2170333  35.9778319  50.0469968  90.9335137  34.4587923  47.4659382
  90.8548768  34.1247787  48.3595140  91.7544804  34.9509691  47.4650855
  93.6313328  27.3249662  60.6735701  93.5989648  26.3865663  60.8595385
  94.2413952  27.4033699  59.9401526  85.4696659  26.1945715  46.7162905
  86.4155764  26.0651923  46.7851323  85.0910904  25.4560377  47.1932333
  93.7807816  24.1160706  60.7193984  93.2646865  23.3319162  60.5323913
  94.6647765  23.7879422  60.8840504  91.4418543  17.8601721  56.6789797
  91.2443365  17.5516809  57.5633129  92.0518249  18.5863360  56.8087727
  99.4489878  28.3865669  59.8141738 100.1793266  28.1250957  60.3749441
  98.8396823  27.6494391  59.8543806  97.5305175  26.5273532  60.4116189
  96.8038339  26.3929497  59.8032681  97.1152462  26.8350360  61.2172907
  85.3535351  30.2463461  68.1763562  86.2738361  30.4242060  68.3703609
  85.3184934  29.3019507  68.0243261  83.6539576  24.1195692  46.6517790
  82.7471031  23.8228804  46.7280504  83.9315557  23.8225510  45.7852077
  74.5717516  25.4402055  57.1016837  74.2520301  24.5867363  56.8091211
  74.0250945  25.6550633  57.8574804  78.3497424  28.1564496  60.8186343
  78.5683434  29.0881604  60.8374377  78.7623198  27.7972470  61.6041147
  85.2701642  18.6632581  52.8062032  84.4602370  18.3179666  53.1817278
  85.9586059  18.3540125  53.3949643  87.1992190  17.7410628  54.4286328
  87.7523229  18.1606082  55.0876351  87.4362276  16.8146376  54.4709284
  83.2225289  23.7297702  70.2089092  83.1222016  24.6792059  70.1401183
  83.0046831  23.4015941  69.3365162  82.4238361  20.9782627  46.7929770
  83.2857525  21.3037525  47.0525587  82.6088705  20.1914123  46.2802835
  74.4405776  29.0604967  59.0709958  73.7469248  28.6458919  58.5579913
  75.1878767  29.1025503  58.4743377  90.5770997  19.8511153  53.9364993
  89.9969666  20.5095957  53.5543045  90.3106930  19.0288498  53.5252410
  89.0274563  19.2516211  56.1386313  89.5274342  19.3632746  55.3300632
  89.6710171  18.9477264  56.7787121  83.0856559  27.1594841  69.0254154
  82.6023641  27.9595201  69.2318043  83.1717498  27.1702785  68.0721598
  76.3542519  28.9923220  56.9475973  76.3313207  29.0910908  55.9957856
  76.6643155  29.8388371  57.2693139  79.0129897  31.0499375  61.0622588
  79.9673150  31.0183318  60.9952519  78.8142420  30.5889999  61.8772813
  79.6029279  29.6200491  63.6293385  80.4222168  30.1144570  63.6528223
  79.8766087  28.7032459  63.6010953  89.3595875  22.0111244  52.9921341
  88.4721730  22.2960894  52.7741536  89.7749864  21.8505007  52.1448618
  92.7110411  22.0357765  56.7075680  93.4870801  22.5254217  56.9800297
  91.9858545  22.4615819  57.1647550  95.1482970  22.7485384  57.7649621
  95.7427461  22.5081120  57.0542929  95.2209554  22.0292514  58.3923157
  77.3680126  36.5918995  58.0792785  77.2334594  35.8319396  57.5130783
  76.9512188  37.3159895  57.6121574  88.5039089  31.7755918  47.0869361
  89.2074939  31.9805921  47.7027016  87.7801737  32.3432680  47.3518444
  89.3336899  27.5265780  53.2071631  89.2772100  27.9834331  52.3679263
  89.8865241  26.7656464  53.0294474  93.1441705  23.3155511  54.0321750
  92.8878639  22.9152147  54.8629958  92.5194573  24.0299305  53.9071890
  97.4554043  26.0551585  56.5393042  96.8953601  26.1244774  57.3124604
  96.8497546  25.8792569  55.8192538  80.5249251  37.4888312  58.2911228
  80.4081636  38.4333744  58.1889918  79.7041698  37.1861873  58.6797027
  90.4125786  32.2138448  49.1367821  91.2471390  31.7819646  48.9545296
  90.2510129  32.0420461  50.0644715  90.0671678  28.7170561  50.5024160
  90.0120482  28.5514832  49.5612604  89.4417733  29.4246594  50.6586350
  74.8564193  23.9538625  64.3285582  75.5023057  23.4437579  64.8172807
  74.6481344  24.6907307  64.9029008  87.3817585  31.0219473  69.8277723
  88.2508745  31.1960125  69.4664358  86.9024337  31.8413890  69.7053452
  83.3767804  18.2178670  50.0809478  83.3646473  19.1620510  50.2377749
  84.2691226  18.0348815  49.7868940  81.5503766  38.1416574  61.5067157
  82.4531012  38.1740184  61.8233651  81.3241136  37.2117025  61.5213492
  83.3057368  36.8947560  58.1677235  82.3552999  36.8949422  58.0541607
  83.6089854  36.1480295  57.6513270  87.1919923  14.8121446  54.3355415
  86.4252319  14.2579933  54.4812098  87.6030628  14.8843315  55.1969567
  79.1961684  21.1006242  68.4260597  80.0593146  20.7443047  68.6363921
  78.6227095  20.7620137  69.1136001  99.0410061  42.7308099  59.2322998
  99.6788471  42.6114846  58.5286338  98.9230904  43.6788943  59.2910950
  95.8499767  42.6835527  59.1684522  95.5118279  42.5676591  58.2805057
  96.7189536  42.2826692  59.1485528  91.7086583  44.5371003  55.1581413
  91.1451448  44.4460940  54.3897701  91.5938978  43.7170908  55.6383906
  96.3319550  43.8370378  65.1270728  96.3208191  43.4423177  64.2551231
  96.4940190  43.1036451  65.7204499  89.2551015  46.0322195  57.9965634
  90.0472307  45.6913019  57.5811933  89.4947665  46.1417170  58.9167787
  97.2886142  48.2041971  50.4695878  96.6374122  48.7896051  50.0829892
  98.0830505  48.7348166  50.5290916  91.2141769  45.2931108  50.8683012
  91.9872645  44.7460095  50.7295888  91.5667168  46.1575357  51.0797474
  93.0526812  46.6207490  64.0749912  92.7616677  47.5253121  63.9596578
  93.6883796  46.6624018  64.7893981  93.9783018  43.9984339  60.6651271
  94.5746591  43.7740361  59.9508234  94.0357990  43.2569084  61.2676719
  93.5508047  41.4523774  48.5001462  93.8033567  40.9305295  47.7384925
  92.6132606  41.2889920  48.6028146  98.5951330  40.4559552  56.3076206
  99.3814419  40.0378976  55.9566623  98.8590034  41.3605645  56.4757854
  98.7661407  45.8932403  51.0064862  98.1307240  45.9667029  51.7185767
  98.4358813  46.4826002  50.3283942 103.9959757  40.3934786  57.2109184
 104.7284929  39.8234003  57.4447014 103.2399112  40.0056386  57.6515690
  93.2704336  43.3551880  50.7025837  93.1540594  42.6796783  51.3706922
  93.3806595  42.8684254  49.8857990  95.6135876  42.8162027  54.4072527
  95.2494084  42.2892648  55.1185448  96.4702992  42.4260496  54.2339012
 101.5185177  34.1056360  61.6703793 101.1868502  34.9751771  61.4465008
 100.9230790  33.7892644  62.3497823  95.2541363  37.8451927  49.4033875
  95.4215766  38.7132163  49.7704346  95.0638532  38.0079209  48.4795164
  98.0116697  46.3068906  61.0699705  97.7117420  47.2093945  60.9615513
  97.6667756  46.0401089  61.9220858  91.4629178  42.7582703  57.1036410
  90.5379675  42.6258917  57.3114102  91.7113591  43.5376922  57.6006352
 101.4113840  38.8251446  58.7497143 100.5030718  38.7566854  58.4555904
 101.3601436  39.3023391  59.5778968  95.2330584  40.3009584  50.3880542
  95.1130209  40.7466635  51.2266022  94.5383173  40.6494902  49.8294080
  88.8237989  42.4015976  57.9380199  88.9530370  42.6550455  58.8519611
  88.1435440  42.9943684  57.6184854  92.9937476  53.0713226  54.0370673
  92.9161506  54.0221051  54.1159154  92.3899120  52.7259099  54.6945599
  95.4854706  40.2441092  66.6932040  94.7088040  40.8035012  66.6834905
  96.1245269  40.7297875  67.2146910 103.2775487  37.0267884  60.5275017
 102.6349867  37.3200418  59.8814811 102.7730415  36.9120805  61.3328213
 100.9315650  40.7731058  51.2160876 101.8433507  41.0058444  51.0408573
 100.4225298  41.3568102  50.6535955  93.7401078  43.0526545  66.2550007
  94.4815763  43.5911589  65.9784831  93.0338064  43.6792834  66.4121559
  99.2156418  45.1955685  64.8522169  99.6239774  44.7538096  64.1076801
  98.4933680  44.6208313  65.1056361  95.5687488  40.1328292  62.2255725
  96.4148683  40.5567706  62.3690374  95.5086126  39.4761916  62.9194289
  99.5385233  45.7556876  58.6074457  98.9094095  45.9202590  57.9050525
  99.1510895  46.1698486  59.3785421 103.4174465  46.6911314  55.9618821
 102.7325503  47.0710215  55.4115854 103.5018314  47.3006641  56.6950769
  98.7186933  37.7932661  63.8836899  98.4747865  38.5474721  63.3471175
  98.9946864  38.1718008  64.7184146 100.6725396  44.3371273  62.5614165
 100.8842291  44.9803033  61.8848546 100.6255145  43.5033589  62.0936095
  98.2751625  36.9489094  59.4650737  97.4136104  37.2470347  59.7567474
  98.3014060  37.1659492  58.5331769  95.0913195  45.4931284  55.8724543
  95.5551540  45.7718987  55.0829165  94.8269993  44.5914729  55.6897633
  91.9837276  45.0402766  58.8104306  92.5538633  45.4690034  58.1721790
  92.5745388  44.7585350  59.5088491  94.0282081  41.6154436  52.6814108
  94.7306124  42.0675480  53.1488034  93.6962709  40.9738255  53.3094001
  92.4762442  40.2066193  67.0565317  91.8461103  40.8882474  67.2900714
  92.3698530  40.0949275  66.1118455  87.7707415  39.8737989  57.9831241
  86.9806469  40.1295518  57.5071352  88.2618662  40.6886327  58.0883282
 101.7871224  47.2143228  60.7336522 102.6088668  46.8123416  60.4519204
 101.7833627  47.1111462  61.6852638  89.7222160  40.2382568  54.9414718
  88.9253323  40.3501263  55.4598214  89.4947752  40.5769221  54.0755608
  95.5527828  46.7627272  62.8897233  95.6172260  47.2247679  63.7255404
  94.8438752  46.1324637  63.0179542  86.0545118  40.1268480  60.4146232
  86.3053156  41.0115490  60.6803808  86.5904666  39.9473081  59.6421324
 109.8777217  43.5581977  57.0821494 109.1240926  42.9889375  56.9265498
 110.0124758  43.5244641  58.0292128  95.2675845  48.4295379  52.7576213
  95.1321520  49.2746915  53.1861061  95.8085658  48.6314657  51.9942147
  91.7543185  34.5086959  69.4190568  91.3610131  33.9553158  70.0938212
  92.5709325  34.8197537  69.8097086  88.7205243  45.9470817  53.3304138
  89.2329763  46.7414067  53.4809703  89.3727956  45.2497108  53.2637739
  90.5300127  49.0636573  55.4126891  90.7066756  49.9854538  55.2247875
  91.3256961  48.7494993  55.8421271  94.6711146  35.9244838  67.0110825
  95.4120859  36.5251991  66.9315287  94.9029069  35.1822476  66.4528867
  89.8152484  41.1101205  65.2889054  89.7005999  40.2086463  65.5896153
  88.9597002  41.3564902  64.9373871  96.8944322  49.0518946  66.8876555
  96.4508176  48.2655324  66.5697459  97.5561535  49.2398096  66.2220446
  91.6531443  50.5814747  61.4137233  92.2038868  50.4531811  60.6414227
  90.8142919  50.8809636  61.0632126  98.9925560  49.3321746  64.9157956
  98.9744035  50.1530627  64.4238225  99.9145480  49.2075821  65.1408097
  95.4498614  46.8465875  65.7581465  95.9826951  46.0854163  65.5280773
  94.9212695  46.5539527  66.5005619  98.6168309  31.9525941  61.2875106
  98.2732578  32.8427583  61.2114217  98.9847271  31.7627599  60.4244691
  86.6854159  44.2759471  54.1063708  87.5229381  44.6856480  53.8897416
  86.8632427  43.3358914  54.0763902  98.5818592  41.9434552  49.7947541
  98.0665215  42.7139157  50.0335929  98.3095900  41.2699688  50.4180603
  96.1665703  36.7884253  54.8532780  95.3107299  36.3991103  54.6738419
  96.5792654  36.8676214  53.9932565  97.6964849  34.3230596  59.2524340
  97.1929645  34.2860731  58.4392145  97.9895456  35.2323339  59.3120996
  93.9407735  34.4069326  58.2590521  94.8060732  34.2112135  57.8996411
  94.0085244  34.1779678  59.1859878 103.5552866  44.6966907  51.7300715
 102.7782308  44.3578066  51.2855877 104.2344347  44.7019530  51.0555680
  98.3704895  39.8161644  51.6207323  98.0655030  40.1307793  52.4717466
  99.3235337  39.8943064  51.6634656  96.8151327  45.9751868  53.2700277
  96.2872688  45.2404627  52.9573514  96.3138829  46.7526544  53.0240245
 101.7944173  44.1700888  58.3867323 101.1367847  44.8600149  58.4747452
 102.5984572  44.5597320  58.7301309  91.5470054  36.6371534  55.6306888
  92.1213806  36.4146715  54.8980081  92.1341037  36.7060228  56.3835489
 100.6049631  42.5245261  56.4371265 101.1181513  43.1575253  56.9392974
 101.2550855  41.9246456  56.0714625  91.8739641  38.6675995  49.6502773
  91.0376954  39.0050681  49.9712048  91.7344411  38.5324975  48.7129910
  93.8492722  33.5112783  54.3581958  93.1957134  33.1961800  53.7338572
  93.8073196  32.8888523  55.0841780  94.9603927  43.7932078  46.2735250
  94.0530989  43.5621331  46.4726399  95.4574959  42.9969697  46.4609231
  97.8672006  52.5029585  49.1931936  97.1933704  52.8061282  49.8016894
  98.2537828  53.3058665  48.8437393  97.0830462  39.9994716  58.6829605
  96.1653024  40.2209663  58.5251293  97.4990606  40.0741027  57.8241313
  97.8665510  41.3986132  53.8132285  98.6137329  41.9107529  53.5039407
  98.1357100  41.0770185  54.6736679  96.1392160  43.8944673  50.7959240
  95.2303379  43.6103705  50.8931709  96.1687244  44.3143751  49.9362547
 101.3711428  47.5051262  54.5650407 100.9173755  46.6642172  54.6215598
 100.7405394  48.1412661  54.9025187 100.3144347  38.4343248  55.7951075
  99.5767104  37.9220634  56.1261317 100.5671121  37.9943630  54.9834352
  99.8144367  49.3427759  55.5000225 100.1067341  49.9032816  54.7812591
 100.3242987  49.6356320  56.2553385 100.4155975  31.2119500  56.3892844
 100.7214851  30.3516864  56.1018759 101.1408579  31.8037120  56.1891838
  86.7080331  41.6150187  54.7774442  86.5104730  41.0219547  54.0525508
  86.1526995  41.3102397  55.4950381  94.6877054  41.5073293  56.8969035
  94.7425664  40.5547130  56.8211512  93.8768256  41.6632732  57.3810333
  95.8368248  45.4353416  48.1347318  95.3987678  44.7189275  47.6752956
  96.5778689  45.6629531  47.5732410  92.6269414  40.1250353  54.6559414
  91.8137280  40.4244524  55.0624606  93.1228408  39.7306042  55.3733896
  94.7777992  50.1208110  56.5893679  94.7354171  50.3468956  55.6602211
  95.6940691  49.8871485  56.7379480  98.2243626  40.5892177  63.4874308
  98.5793014  40.8163651  64.3468774  98.8715757  40.9210554  62.8651563
 103.9541363  43.7110613  54.1923637 103.8159261  43.9012209  53.2644826
 103.5977582  44.4729996  54.6491688  92.1183489  37.6968709  60.2720649
  92.7582868  37.5557468  59.5743612  91.2861020  37.4103222  59.8959251
 103.9810742  45.7787140  59.2034908 104.4147249  45.6862429  60.0517962
 104.6942323  45.7544641  58.5654924  92.8943793  46.9971139  56.3855641
  93.6884391  46.5021459  56.1838216  92.1835485  46.4689002  56.0223347
  97.7138637  49.3789234  60.7368009  97.7675660  49.9480171  61.5045725
  96.8453419  49.5491120  60.3722046  89.2026556  41.1414221  52.4615394
  88.2724144  41.0798676  52.6785356  89.2984028  40.6190173  51.6652035
  89.1212105  37.6669034  55.0493636  89.3818923  38.5814367  54.9402796
  89.9429278  37.1993476  55.1990249  90.5937031  39.0806791  62.2192460
  91.2660084  38.8724153  61.5705109  89.7666817  38.8828877  61.7797693
 104.8426292  45.8210841  61.7367794 105.0362182  46.7256652  61.9827069
 104.7426910  45.3618260  62.5706379  96.4962603  35.7068732  64.2358121
  95.8490518  36.4058681  64.1422598  97.2663618  36.1404876  64.6034369
  99.9041401  45.9717584  67.3108674  99.7526907  45.7428135  66.3938758
  99.8946080  46.9288185  67.3240019  96.6726737  43.5449496  62.2954941
  97.6018797  43.6960656  62.1223908  96.2517767  43.6333517  61.4403587
  95.4715069  47.5700161  60.0653478  95.3326155  47.2018945  60.9379417
  94.6829665  48.0847800  59.8937436  96.0663221  52.6709257  51.4079015
  96.2414977  52.1997301  52.2224638  95.3796009  53.2975024  51.6360276
  97.0220284  46.9481764  57.4542316  96.6870117  46.9082534  58.3499966
  96.5224230  46.2826480  56.9812726  90.9964528  42.3549394  62.9794897
  90.8584326  41.6229632  63.5806436  91.9069451  42.2658294  62.6979085
  99.9579476  44.2937798  47.7279376  99.3408646  43.5684626  47.6312429
  99.4895964  45.0547158  47.3846450  93.6246829  42.0669353  62.4678577
  94.3346447  41.4262545  62.4265195  93.5816137  42.3182248  63.3904758
 101.6133607  49.0036706  65.3885156 101.5546153  48.3195926  64.7215739
 102.0153126  49.7455696  64.9365782  92.3375763  39.0534571  64.2874217
  91.8013120  38.6025309  64.9395813  91.7492471  39.1880480  63.5444681
  90.6324306  55.8198620  58.1818875  90.8720904  56.4517144  58.8597894
  89.7893503  55.4686660  58.4684234  91.7478022  38.5123222  46.8500680
  90.8707488  38.3912023  46.4862927  92.2235775  37.7209301  46.5979569
 101.6151015  46.9676290  63.6199136 100.7277793  46.6302212  63.7425535
 102.1849566  46.2359321  63.8567901  83.2680162  43.3000382  56.9442187
  83.9551202  42.9862112  56.3563203  83.1128290  44.2041747  56.6709439
  88.0714884  38.1890579  61.3727211  87.9873073  37.5816248  60.6377621
  87.2497590  38.6799597  61.3736707  95.1452168  51.6277743  60.5860379
  95.0722339  52.4332714  61.0979684  94.7029561  51.8269708  59.7608401
  94.9341948  50.8649513  54.0963201  94.1509469  51.4071193  54.1901425
  95.6334693  51.3823492  54.4957442  98.2438598  36.6744142  56.7397406
  98.7407297  35.9214104  56.4198476  97.4725579  36.7108459  56.1740615
 106.0968355  42.3784508  58.3815698 106.0858231  43.2609223  58.0109631
 105.2285735  42.0256058  58.1870235  97.6050851  51.5264577  62.7418538
  98.3178824  52.1612041  62.6694439  97.1140880  51.6228443  61.9258540
  99.3268378  45.4315829  54.3135829  98.3924657  45.5517292  54.1440534
  99.5045047  44.5288296  54.0495839  94.8273566  38.8161525  56.4669091
  94.4571354  38.2632565  57.1549996  95.3232659  38.2119659  55.9144091
 102.7140930  41.2733149  54.8485864 103.1801382  42.1061140  54.7746166
 103.1648430  40.8078130  55.5531122  92.6562765  49.2759020  63.5624109
  93.3572225  49.9095503  63.7153503  92.1857880  49.6173752  62.8019748
 100.7817161  47.6176970  51.8472016 101.0577005  47.5033564  52.7565890
  99.9121660  47.2194455  51.8084189 100.6857592  33.6413736  58.8876765
  99.7720672  33.8717962  59.0558972 101.1150694  33.7252180  59.7390797
 100.4564051  41.8303628  61.3876659  99.8035501  42.0779535  60.7329112
 100.8344431  41.0167766  61.0539136  97.4171225  51.8663321  55.4904829
  97.5993619  51.0484977  55.9532582  98.2404211  52.0831013  55.0529719
  97.7513390  50.7931506  52.7519878  98.2801157  50.2823960  52.1390040
  98.0141610  50.4774036  53.6165411  96.5051624  42.5723439  67.8742696
  95.8292261  42.4717568  68.5445071  97.3279258  42.4162652  68.3378693
  88.2530483  48.8095375  60.4955211  88.8383920  48.0639063  60.6283115
  88.0555322  49.1199332  61.3791875  91.1069138  51.8446623  55.5117654
  90.4379514  52.3292750  55.0281694  90.9682008  52.0915843  56.4261032
  82.8448138  41.3800975  59.2159654  82.8832237  40.8464566  60.0096773
  82.3388431  40.8536181  58.5970632  95.2474407  53.8790366  62.1100312
  95.7992715  54.0421988  62.8749397  95.5880600  54.4694804  61.4380337
  90.2238900  36.2265516  62.7122197  90.2880227  37.0880347  62.2999594
  90.1606020  35.6139518  61.9794555  89.6991173  38.2988648  66.3595231
  90.3263211  37.9165726  66.9732755  88.8419092  38.0802850  66.7250923
 100.0985281  48.7051624  67.9648966 100.6425185  49.3181582  67.4703921
  99.5172126  49.2631202  68.4815979  86.4756715  40.1065078  52.2913586
  86.7710156  39.1975756  52.2380640  85.5744751  40.0852817  51.9694588
  98.3842794  51.8272342  59.0963994  98.2593934  51.0262081  58.5874940
  99.0421885  52.3218535  58.6077964  90.0050962  38.1821074  58.2741134
  89.2837548  38.7957042  58.1348608  90.7944218  38.7178839  58.1957780
 100.4477703  49.6281362  60.7243544  99.5008038  49.5086713  60.6521871
 100.7960476  48.7403860  60.8069806  92.8077276  35.5175501  64.5481786
  93.3311678  35.7637797  65.3108095  92.5889609  36.3495535  64.1284924
  88.2044557  37.7879175  52.4152911  87.8757263  36.9076554  52.2328017
  88.5583928  37.7326844  53.3029300  97.4524136  49.4234078  56.9247897
  97.3049098  48.4950785  57.1055467  98.2777629  49.4454169  56.4404972
  91.3186380  38.0752145  52.7828389  91.6582453  38.6038066  52.0606997
  91.7658501  38.4132551  53.5586955 101.0558258  50.2462637  58.0112769
 101.9804805  50.0405498  57.8737220 100.8873561  49.9979038  58.9202111
  94.0129821  36.4589196  62.2331457  93.6726641  35.6597009  62.6352137
  93.3068827  36.7590907  61.6608290  94.6646293  33.5438508  60.6858780
  95.4872362  33.0698986  60.5637670  94.9084356  34.3228992  61.1857466
  93.3054527  36.5726767  50.9821681  94.0262890  36.9508019  50.4785398
  92.6819831  37.2915643  51.0856659  97.4485650  37.2771916  51.9180014
  97.6649265  38.1596553  51.6168842  96.9679717  36.8858129  51.1885656
  92.1884872  40.2357629  58.4950758  92.0429452  40.5497932  59.3875040
  91.7110075  40.8542529  57.9421657  94.0481254  37.2260177  58.5431648
  94.0342823  36.3301270  58.2063946  94.7653683  37.2330840  59.1769934
  95.9007385  37.6597517  60.5884775  95.6425163  38.5814588  60.5869106
  95.3692426  37.2627951  61.2785239 100.8453574  50.7648304  53.3674861
 101.0190451  50.1994727  52.6148713 101.3382465  51.5649199  53.1854351
  86.6630534  42.7762973  61.4338420  86.1184002  43.5522781  61.5658694
  87.5409884  43.1233778  61.2757541  93.4518150  36.1074557  53.8119218
  93.5734062  35.1791203  54.0110106  93.1620193  36.1213243  52.8997533
  96.3209341  33.7929467  56.9485938  96.3431038  33.8568801  55.9937917
  96.7377400  32.9533976  57.1426444 106.6992965  43.5284727  54.9865160
 107.1424111  42.7792052  54.5884284 105.8219475  43.5194863  54.6038892
 101.8328746  50.0815068  50.4671759 102.5279651  50.7021761  50.6859074
 102.1751897  49.2310420  50.7424137  87.4496556  41.9032869  64.3268576
  86.7078292  42.0515505  64.9133207  87.1289300  42.1641135  63.4635326
 103.7320170  47.5314774  51.9959090 104.2571494  47.8702047  51.2708410
 103.6442522  46.5961789  51.8122224  95.3940218  51.4448848  64.1248966
  95.7027345  51.1997994  64.9971666  96.1915700  51.6495486  63.6367837
  95.4160830  53.5986757  56.3554343  94.9765821  53.1063136  57.0487200
  96.1668947  53.0559725  56.1146418  87.8953169  49.7898298  56.3578971
  88.7211189  49.4902070  55.9777615  87.5447221  49.0205921  56.8068760
  92.8634702  49.1424766  58.4276645  92.2414712  48.4795471  58.1278872
  93.5339569  49.1685898  57.7450292  86.0961774  47.7084625  57.3167905
  85.2593683  47.2806799  57.1351906  86.0685420  47.9017068  58.2538696
  92.9359230  37.6206554  68.0209151  92.9847385  38.4968677  67.6386920
  93.4781744  37.0783947  67.4480794 103.4214076  48.1647678  67.3010288
 102.6309619  48.1471816  66.7614787 103.1847430  48.7035971  68.0559324
 103.5411951  45.0140144  64.6143016 103.5909956  44.8490151  65.5558539
 103.4325874  44.1467403  64.2240897  92.4248209  47.6928690  51.9035105
  92.5736330  48.3764154  51.2501778  93.2314653  47.6733780  52.4184561
 100.8315713  40.9971072  65.9302323 101.7325576  40.8577537  65.6386321
 100.9063688  41.1625527  66.8700500  95.1658518  38.3737927  64.7755509
  94.2961828  38.6671493  64.5038098  95.4017999  38.9578372  65.4962773
 105.0430147  47.4337086  64.8585038 104.7514956  47.7967066  65.6948499
 104.4302279  46.7204094  64.6798370 106.2425830  44.9989965  57.3787608
 107.0772721  45.4379769  57.5425168 106.3784959  44.5228619  56.5595854
 103.2917336  42.5569700  63.3265096 103.7671457  42.7497346  62.5183947
 102.3682901  42.6128886  63.0808479  90.1800842  43.7193867  52.9096174
  89.9346884  42.8156197  53.1076384  90.3496757  43.7211018  51.9675652
  97.8697552  34.5917544  62.2920930  98.3879496  35.3278571  61.9667418
  97.5152685  34.8981537  63.1267689  89.4496490  39.4522225  50.4082336
  88.7565735  39.5266580  49.7522371  89.2048242  38.6882569  50.9303852
  98.1210146  31.0117826  57.8121826  98.4011900  30.3441015  58.4382253
  98.9060753  31.2046922  57.2996490  95.9243615  50.1876820  49.3746853
  95.3517582  50.8067007  48.9217324  96.4976409  50.7376182  49.9086775
 101.9919005  39.4335460  61.5593401 102.9436428  39.5333558  61.5805625
 101.8222455  38.6413729  62.0691486 100.0133384  36.5191043  61.7452802
  99.4183316  36.7996056  61.0499291  99.7283081  37.0084944  62.5169543
  99.1440875  50.4713970  50.5055435 100.0771548  50.4059532  50.7088310
  99.0564087  51.3070237  50.0469968 101.7728891  49.7879841  47.4659382
 101.6942523  49.4539704  48.3595140 102.5938558  50.2801609  47.4650855
 104.4707082  42.6541580  60.6735701 104.4383403  41.7157581  60.8595385
 105.0807706  42.7325617  59.9401526  96.3090413  41.5237633  46.7162905
  97.2549518  41.3943841  46.7851323  95.9304658  40.7852295  47.1932333
 104.6201571  39.4452623  60.7193984 104.1040620  38.6611080  60.5323913
 105.5041519  39.1171340  60.8840504 102.2812298  33.1893639  56.6789797
 102.0837119  32.8808727  57.5633129 102.8912003  33.9155278  56.8087727
 110.2883632  43.7157587  59.8141738 111.0187021  43.4542875  60.3749441
 109.6790578  42.9786309  59.8543806 108.3698929  41.8565449  60.4116189
 107.6432093  41.7221414  59.8032681 107.9546216  42.1642278  61.2172907
  96.1929106  45.5755379  68.1763562  97.1132115  45.7533978  68.3703609
  96.1578689  44.6311424  68.0243261  94.4933331  39.4487609  46.6517790
  93.5864786  39.1520722  46.7280504  94.7709312  39.1517427  45.7852077
  85.4111271  40.7693973  57.1016837  85.0914055  39.9159281  56.8091211
  84.8644699  40.9842551  57.8574804  89.1891178  43.4856414  60.8186343
  89.4077188  44.4173522  60.8374377  89.6016952  43.1264388  61.6041147
  96.1095396  33.9924499  52.8062032  95.2996125  33.6471584  53.1817278
  96.7979813  33.6832043  53.3949643  98.0385945  33.0702546  54.4286328
  98.5916983  33.4897999  55.0876351  98.2756031  32.1438294  54.4709284
  94.0619044  39.0589619  70.2089092  93.9615771  40.0083976  70.1401183
  93.8440586  38.7307858  69.3365162  93.2632115  36.3074545  46.7929770
  94.1251279  36.6329443  47.0525587  93.4482459  35.5206040  46.2802835
  85.2799531  44.3896884  59.0709958  84.5863002  43.9750837  58.5579913
  86.0272522  44.4317421  58.4743377 101.4164752  35.1803071  53.9364993
 100.8363421  35.8387875  53.5543045 101.1500684  34.3580416  53.5252410
  99.8668318  34.5808129  56.1386313 100.3668096  34.6924663  55.3300632
 100.5103926  34.2769182  56.7787121  93.9250314  42.4886758  69.0254154
  93.4417396  43.2887118  69.2318043  94.0111253  42.4994703  68.0721598
  87.1936273  44.3215138  56.9475973  87.1706962  44.4202825  55.9957856
  87.5036910  45.1680289  57.2693139  89.8523651  46.3791293  61.0622588
  90.8066905  46.3475235  60.9952519  89.6536175  45.9181917  61.8772813
  90.4423033  44.9492409  63.6293385  91.2615922  45.4436488  63.6528223
  90.7159841  44.0324377  63.6010953 100.1989630  37.3403161  52.9921341
  99.3115485  37.6252812  52.7741536 100.6143619  37.1796925  52.1448618
 103.5504166  37.3649682  56.7075680 104.3264556  37.8546135  56.9800297
 102.8252300  37.7907737  57.1647550 105.9876724  38.0777302  57.7649621
 106.5821215  37.8373038  57.0542929 106.0603308  37.3584432  58.3923157
  88.2073880  51.9210912  58.0792785  88.0728348  51.1611313  57.5130783
  87.7905942  52.6451812  57.6121574  99.3432843  47.1047836  47.0869361
 100.0468693  47.3097839  47.7027016  98.6195492  47.6724598  47.3518444
 100.1730653  42.8557697  53.2071631 100.1165855  43.3126249  52.3679263
 100.7258996  42.0948382  53.0294474 103.9835459  38.6447429  54.0321750
 103.7272394  38.2444065  54.8629958 103.3588327  39.3591223  53.9071890
 108.2947797  41.3843502  56.5393042 107.7347355  41.4536692  57.3124604
 107.6891301  41.2084487  55.8192538  91.3643006  52.8180230  58.2911228
  91.2475390  53.7625662  58.1889918  90.5435452  52.5153791  58.6797027
 101.2519540  47.5430365  49.1367821 102.0865144  47.1111564  48.9545296
 101.0903883  47.3712379  50.0644715 100.9065433  44.0462479  50.5024160
 100.8514236  43.8806750  49.5612604 100.2811488  44.7538511  50.6586350
  85.6957948  39.2830543  64.3285582  86.3416811  38.7729497  64.8172807
  85.4875099  40.0199225  64.9029008  98.2211340  46.3511390  69.8277723
  99.0902499  46.5252043  69.4664358  97.7418091  47.1705807  69.7053452
  94.2161558  33.5470588  50.0809478  94.2040228  34.4912427  50.2377749
  95.1084980  33.3640733  49.7868940  92.3897520  53.4708491  61.5067157
  93.2924767  53.5032102  61.8233651  92.1634890  52.5408942  61.5213492
  94.1451122  52.2239478  58.1677235  93.1946753  52.2241340  58.0541607
  94.4483608  51.4772213  57.6513270  98.0313678  30.1413364  54.3355415
  97.2646073  29.5871851  54.4812098  98.4424383  30.2135233  55.1969567
  90.0355439  36.4298160  68.4260597  90.8986900  36.0734965  68.6363921
  89.4620849  36.0912055  69.1136001 109.8803816  58.0600016  59.2322998
 110.5182226  57.9406764  58.5286338 109.7624658  59.0080860  59.2910950
 106.6893522  58.0127444  59.1684522 106.3512033  57.8968509  58.2805057
 107.5583290  57.6118610  59.1485528 102.5480338  59.8662921  55.1581413
 101.9845203  59.7752858  54.3897701 102.4332733  59.0462825  55.6383906
 107.1713305  59.1662296  65.1270728 107.1601946  58.7715094  64.2551231
 107.3333944  58.4328369  65.7204499 100.0944769  61.3614112  57.9965634
 100.8866061  61.0204937  57.5811933 100.3341420  61.4709087  58.9167787
 108.1279896  63.5333889  50.4695878 107.4767876  64.1187969  50.0829892
 108.9224259  64.0640083  50.5290916 102.0535523  60.6223026  50.8683012
 102.8266399  60.0752013  50.7295888 102.4060922  61.4867275  51.0797474
 103.8920566  61.9499408  64.0749912 103.6010432  62.8545039  63.9596578
 104.5277550  61.9915936  64.7893981 104.8176773  59.3276256  60.6651271
 105.4140345  59.1032279  59.9508234 104.8751744  58.5861002  61.2676719
 104.3901801  56.7815692  48.5001462 104.6427322  56.2597213  47.7384925
 103.4526360  56.6181837  48.6028146 109.4345084  55.7851470  56.3076206
 110.2208173  55.3670893  55.9566623 109.6983788  56.6897562  56.4757854
 109.6055161  61.2224320  51.0064862 108.9700994  61.2958947  51.7185767
 109.2752568  61.8117919  50.3283942 114.8353511  55.7226703  57.2109184
 115.5678683  55.1525920  57.4447014 114.0792867  55.3348304  57.6515690
 104.1098090  58.6843798  50.7025837 103.9934348  58.0088701  51.3706922
 104.2200350  58.1976172  49.8857990 106.4529631  58.1453945  54.4072527
 106.0887838  57.6184566  55.1185448 107.3096747  57.7552414  54.2339012
 112.3578932  49.4348277  61.6703793 112.0262256  50.3043688  61.4465008
 111.7624545  49.1184561  62.3497823 106.0935118  53.1743845  49.4033875
 106.2609520  54.0424081  49.7704346 105.9032287  53.3371126  48.4795164
 108.8510451  61.6360823  61.0699705 108.5511174  62.5385862  60.9615513
 108.5061511  61.3693007  61.9220858 102.3022933  58.0874620  57.1036410
 101.3773429  57.9550834  57.3114102 102.5507346  58.8668840  57.6006352
 112.2507595  54.1543364  58.7497143 111.3424472  54.0858772  58.4555904
 112.1995191  54.6315309  59.5778968 106.0724339  55.6301502  50.3880542
 105.9523964  56.0758553  51.2266022 105.3776927  55.9786820  49.8294080
  99.6631744  57.7307894  57.9380199  99.7924125  57.9842373  58.8519611
  98.9829195  58.3235602  57.6184854 103.8331231  68.4005144  54.0370673
 103.7555261  69.3512969  54.1159154 103.2292874  68.0551016  54.6945599
 106.3248461  55.5733009  66.6932040 105.5481795  56.1326929  66.6834905
 106.9639024  56.0589792  67.2146910 114.1169241  52.3559802  60.5275017
 113.4743622  52.6492335  59.8814811 113.6124170  52.2412722  61.3328213
 111.7709405  56.1022975  51.2160876 112.6827261  56.3350362  51.0408573
 111.2619052  56.6860019  50.6535955 104.5794833  58.3818463  66.2550007
 105.3209517  58.9203507  65.9784831 103.8731818  59.0084751  66.4121559
 110.0550173  60.5247603  64.8522169 110.4633529  60.0830014  64.1076801
 109.3327434  59.9500231  65.1056361 106.4081243  55.4620210  62.2255725
 107.2542438  55.8859623  62.3690374 106.3479880  54.8053834  62.9194289
 110.3778987  61.0848794  58.6074457 109.7487850  61.2494508  57.9050525
 109.9904649  61.4990403  59.3785421 114.2568219  62.0203232  55.9618821
 113.5719257  62.4002133  55.4115854 114.3412068  62.6298558  56.6950769
 109.5580688  53.1224578  63.8836899 109.3141620  53.8766639  63.3471175
 109.8340618  53.5009926  64.7184146 111.5119151  59.6663191  62.5614165
 111.7236046  60.3094950  61.8848546 111.4648899  58.8325507  62.0936095
 109.1145380  52.2781011  59.4650737 108.2529859  52.5762265  59.7567474
 109.1407814  52.4951410  58.5331769 105.9306949  60.8223202  55.8724543
 106.3945295  61.1010905  55.0829165 105.6663747  59.9206646  55.6897633
 102.8231030  60.3694683  58.8104306 103.3932387  60.7981952  58.1721790
 103.4139142  60.0877268  59.5088491 104.8675835  56.9446354  52.6814108
 105.5699879  57.3967398  53.1488034 104.5356464  56.3030173  53.3094001
 103.3156197  55.5358111  67.0565317 102.6854857  56.2174392  67.2900714
 103.2092285  55.4241192  66.1118455  98.6101169  55.2029907  57.9831241
  97.8200223  55.4587435  57.5071352  99.1012417  56.0178245  58.0883282
 112.6264979  62.5435146  60.7336522 113.4482422  62.1415333  60.4519204
 112.6227382  62.4403380  61.6852638 100.5615915  55.5674486  54.9414718
  99.7647078  55.6793180  55.4598214 100.3341507  55.9061138  54.0755608
 106.3921582  62.0919189  62.8897233 106.4566015  62.5539597  63.7255404
 105.6832506  61.4616554  63.0179542  96.8938872  55.4560397  60.4146232
  97.1446911  56.3407407  60.6803808  97.4298421  55.2764999  59.6421324
 106.1069600  63.7587297  52.7576213 105.9715275  64.6038833  53.1861061
 106.6479412  63.9606574  51.9942147 102.5936939  49.8378877  69.4190568
 102.2003885  49.2845075  70.0938212 103.4103080  50.1489455  69.8097086
  99.5598997  61.2762735  53.3304138 100.0723518  62.0705985  53.4809703
 100.2121710  60.5789025  53.2637739 101.3693882  64.3928491  55.4126891
 101.5460510  65.3146456  55.2247875 102.1650715  64.0786910  55.8421271
 105.5104900  51.2536756  67.0110825 106.2514614  51.8543909  66.9315287
 105.7422823  50.5114394  66.4528867 100.6546238  56.4393123  65.2889054
 100.5399754  55.5378380  65.5896153  99.7990756  56.6856820  64.9373871
 107.7338076  64.3810863  66.8876555 107.2901930  63.5947242  66.5697459
 108.3955290  64.5690014  66.2220446 102.4925197  65.9106665  61.4137233
 103.0432622  65.7823728  60.6414227 101.6536673  66.2101554  61.0632126
 109.8319314  64.6613663  64.9157956 109.8137790  65.4822544  64.4238225
 110.7539234  64.5367738  65.1408097 106.2892368  62.1757793  65.7581465
 106.8220705  61.4146081  65.5280773 105.7606449  61.8831445  66.5005619
 109.4562063  47.2817859  61.2875106 109.1126333  48.1719500  61.2114217
 109.8241026  47.0919516  60.4244691  97.5247914  59.6051389  54.1063708
  98.3623136  60.0148397  53.8897416  97.7026182  58.6650831  54.0763902
 109.4212346  57.2726470  49.7947541 108.9058970  58.0431074  50.0335929
 109.1489655  56.5991606  50.4180603 107.0059457  52.1176171  54.8532780
 106.1501053  51.7283021  54.6738419 107.4186409  52.1968131  53.9932565
 108.5358604  49.6522514  59.2524340 108.0323399  49.6152649  58.4392145
 108.8289211  50.5615257  59.3120996 104.7801490  49.7361244  58.2590521
 105.6454486  49.5404052  57.8996411 104.8478999  49.5071595  59.1859878
 114.3946620  60.0258824  51.7300715 113.6176063  59.6869984  51.2855877
 115.0738101  60.0311448  51.0555680 109.2098649  55.1453562  51.6207323
 108.9048785  55.4599711  52.4717466 110.1629091  55.2234982  51.6634656
 107.6545081  61.3043785  53.2700277 107.1266443  60.5696545  52.9573514
 107.1532584  62.0818462  53.0240245 112.6337927  59.4992806  58.3867323
 111.9761602  60.1892067  58.4747452 113.4378326  59.8889238  58.7301309
 102.3863809  51.9663451  55.6306888 102.9607561  51.7438633  54.8980081
 102.9734791  52.0352146  56.3835489 111.4443386  57.8537178  56.4371265
 111.9575268  58.4867170  56.9392974 112.0944610  57.2538374  56.0714625
 102.7133396  53.9967912  49.6502773 101.8770708  54.3342599  49.9712048
 102.5738165  53.8616892  48.7129910 104.6886476  48.8404700  54.3581958
 104.0350889  48.5253718  53.7338572 104.6466951  48.2180441  55.0841780
 105.7997681  59.1223995  46.2735250 104.8924743  58.8913249  46.4726399
 106.2968713  58.3261615  46.4609231 108.7065760  67.8321503  49.1931936
 108.0327459  68.1353199  49.8016894 109.0931582  68.6350583  48.8437393
 107.9224217  55.3286634  58.6829605 107.0046778  55.5501581  58.5251293
 108.3384360  55.4032944  57.8241313 108.7059265  56.7278050  53.8132285
 109.4531083  57.2399447  53.5039407 108.9750854  56.4062102  54.6736679
 106.9785915  59.2236590  50.7959240 106.0697134  58.9395623  50.8931709
 107.0080999  59.6435669  49.9362547 112.2105182  62.8343180  54.5650407
 111.7567509  61.9934090  54.6215598 111.5799149  63.4704578  54.9025187
 111.1538102  53.7635166  55.7951075 110.4160858  53.2512552  56.1261317
 111.4064875  53.3235547  54.9834352 110.6538121  64.6719677  55.5000225
 110.9461096  65.2324734  54.7812591 111.1636742  64.9648238  56.2553385
 111.2549729  46.5411418  56.3892844 111.5608606  45.6808781  56.1018759
 111.9802334  47.1329038  56.1891838  97.5474085  56.9442104  54.7774442
  97.3498485  56.3511465  54.0525508  96.9920749  56.6394315  55.4950381
 105.5270809  56.8365211  56.8969035 105.5819419  55.8839047  56.8211512
 104.7162011  56.9924650  57.3810333 106.6762003  60.7645334  48.1347318
 106.2381432  60.0481193  47.6752956 107.4172443  60.9921449  47.5732410
 103.4663169  55.4542271  54.6559414 102.6531034  55.7536441  55.0624606
 103.9622163  55.0597959  55.3733896 105.6171747  65.4500028  56.5893679
 105.5747925  65.6760874  55.6602211 106.5334445  65.2163402  56.7379480
 109.0637380  55.9184095  63.4874308 109.4186768  56.1455568  64.3468774
 109.7109512  56.2502472  62.8651563 114.7935117  59.0402531  54.1923637
 114.6553016  59.2304127  53.2644826 114.4371336  59.8021914  54.6491688
 102.9577243  53.0260626  60.2720649 103.5976623  52.8849385  59.5743612
 102.1254774  52.7395140  59.8959251 114.8204497  61.1079058  59.2034908
 115.2541004  61.0154347  60.0517962 115.5336078  61.0836558  58.5654924
 103.7337547  62.3263057  56.3855641 104.5278146  61.8313377  56.1838216
 103.0229240  61.7980920  56.0223347 108.5532392  64.7081152  60.7368009
 108.6069414  65.2772088  61.5045725 107.6847173  64.8783037  60.3722046
 100.0420311  56.4706138  52.4615394  99.1117899  56.4090594  52.6785356
 100.1377783  55.9482091  51.6652035  99.9605860  52.9960951  55.0493636
 100.2212677  53.9106284  54.9402796 100.7823032  52.5285394  55.1990249
 101.4330785  54.4098708  62.2192460 102.1053839  54.2016070  61.5705109
 100.6060572  54.2120794  61.7797693 115.6820046  61.1502759  61.7367794
 115.8755937  62.0548569  61.9827069 115.5820665  60.6910178  62.5706379
 107.3356357  51.0360649  64.2358121 106.6884272  51.7350599  64.1422598
 108.1057373  51.4696793  64.6034369 110.7435155  61.3009501  67.3108674
 110.5920662  61.0720053  66.3938758 110.7339835  62.2580103  67.3240019
 107.5120492  58.8741414  62.2954941 108.4412552  59.0252574  62.1223908
 107.0911522  58.9625435  61.4403587 106.3108823  62.8992079  60.0653478
 106.1719909  62.5310863  60.9379417 105.5223420  63.4139718  59.8937436
 106.9056975  68.0001175  51.4079015 107.0808731  67.5289218  52.2224638
 106.2189763  68.6266941  51.6360276 107.8614038  62.2773681  57.4542316
 107.5263871  62.2374451  58.3499966 107.3617984  61.6118397  56.9812726
 101.8358282  57.6841311  62.9794897 101.6978080  56.9521550  63.5806436
 102.7463206  57.5950211  62.6979085 110.7973230  59.6229716  47.7279376
 110.1802401  58.8976544  47.6312429 110.3289719  60.3839076  47.3846450
 104.4640583  57.3961271  62.4678577 105.1740202  56.7554463  62.4265195
 104.4209891  57.6474165  63.3904758 112.4527362  64.3328624  65.3885156
 112.3939908  63.6487844  64.7215739 112.8546880  65.0747614  64.9365782
 103.1769517  54.3826489  64.2874217 102.6406874  53.9317227  64.9395813
 102.5886226  54.5172397  63.5444681 101.4718061  71.1490538  58.1818875
 101.7114659  71.7809062  58.8597894 100.6287257  70.7978578  58.4684234
 102.5871776  53.8415140  46.8500680 101.7101242  53.7203941  46.4862927
 103.0629529  53.0501218  46.5979569 112.4544769  62.2968208  63.6199136
 111.5671548  61.9594130  63.7425535 113.0243320  61.5651239  63.8567901
  94.1073916  58.6292300  56.9442187  94.7944956  58.3154030  56.3563203
  93.9522045  59.5333664  56.6709439  98.9108638  53.5182496  61.3727211
  98.8266827  52.9108166  60.6377621  98.0891345  54.0091515  61.3736707
 105.9845922  66.9569660  60.5860379 105.9116094  67.7624632  61.0979684
 105.5423316  67.1561626  59.7608401 105.7735702  66.1941430  54.0963201
 104.9903224  66.7363110  54.1901425 106.4728447  66.7115410  54.4957442
 109.0832352  52.0036060  56.7397406 109.5801052  51.2506022  56.4198476
 108.3119334  52.0400376  56.1740615 108.4444606  66.8556494  62.7418538
 109.1572578  67.4903959  62.6694439 107.9534635  66.9520360  61.9258540
 110.1662133  60.7607747  54.3135829 109.2318412  60.8809209  54.1440534
 110.3438801  59.8580214  54.0495839 105.6667321  54.1453443  56.4669091
 105.2965108  53.5924483  57.1549996 106.1626413  53.5411576  55.9144091
 113.5534684  56.6025066  54.8485864 114.0195136  57.4353058  54.7746166
 114.0042185  56.1370048  55.5531122 103.4956520  64.6050938  63.5624109
 104.1965979  65.2387421  63.7153503 103.0251635  64.9465669  62.8019748
 111.6210915  62.9468888  51.8472016 111.8970759  62.8325482  52.7565890
 110.7515414  62.5486372  51.8084189 111.5251347  48.9705653  58.8876765
 110.6114427  49.2009880  59.0558972 111.9544448  49.0544097  59.7390797
 111.2957805  57.1595545  61.3876659 110.6429256  57.4071453  60.7329112
 111.6738185  56.3459683  61.0539136 108.2564979  67.1955238  55.4904829
 108.4387374  66.3776894  55.9532582 109.0797965  67.4122931  55.0529719
 108.5907145  66.1223424  52.7519878 109.1194911  65.6115878  52.1390040
 108.8535364  65.8065954  53.6165411 107.3445379  57.9015356  67.8742696
 106.6686016  57.8009486  68.5445071 108.1673012  57.7454570  68.3378693
  99.0924238  64.1387293  60.4955211  99.6777674  63.3930981  60.6283115
  98.8949076  64.4491250  61.3791875 101.9462893  67.1738540  55.5117654
 101.2773268  67.6584668  55.0281694 101.8075762  67.4207761  56.4261032
  93.6841892  56.7092893  59.2159654  93.7225992  56.1756484  60.0096773
  93.1782185  56.1828099  58.5970632 106.0868161  69.2082284  62.1100312
 106.6386469  69.3713905  62.8749397 106.4274355  69.7986722  61.4380337
 101.0632655  51.5557434  62.7122197 101.1273981  52.4172264  62.2999594
 100.9999775  50.9431435  61.9794555 100.5384927  53.6280566  66.3595231
 101.1656966  53.2457643  66.9732755  99.6812846  53.4094768  66.7250923
 110.9379036  64.0343541  67.9648966 111.4818940  64.6473500  67.4703921
 110.3565881  64.5923120  68.4815979  97.3150470  55.4356995  52.2913586
  97.6103911  54.5267674  52.2380640  96.4138506  55.4144735  51.9694588
 109.2236549  67.1564259  59.0963994 109.0987688  66.3553999  58.5874940
 109.8815640  67.6510453  58.6077964 100.8444717  53.5112992  58.2741134
 100.1231303  54.1248959  58.1348608 101.6337973  54.0470757  58.1957780
 111.2871457  64.9573279  60.7243544 110.3401793  64.8378631  60.6521871
 111.6354230  64.0695777  60.8069806 103.6471030  50.8467418  64.5481786
 104.1705432  51.0929715  65.3108095 103.4283364  51.6787453  64.1284924
  99.0438311  53.1171093  52.4152911  98.7151018  52.2368472  52.2328017
  99.3977682  53.0618762  53.3029300 108.2917890  64.7525996  56.9247897
 108.1442853  63.8242703  57.1055467 109.1171384  64.7746086  56.4404972
 102.1580135  53.4044063  52.7828389 102.4976207  53.9329984  52.0606997
 102.6052255  53.7424469  53.5586955 111.8952012  65.5754554  58.0112769
 112.8198560  65.3697416  57.8737220 111.7267316  65.3270955  58.9202111
 104.8523575  51.7881113  62.2331457 104.5120396  50.9888926  62.6352137
 104.1462582  52.0882824  61.6608290 105.5040047  48.8730426  60.6858780
 106.3266117  48.3990904  60.5637670 105.7478111  49.6520910  61.1857466
 104.1448282  51.9018684  50.9821681 104.8656644  52.2799937  50.4785398
 103.5213586  52.6207561  51.0856659 108.2879405  52.6063833  51.9180014
 108.5043019  53.4888471  51.6168842 107.8073472  52.2150047  51.1885656
 103.0278626  55.5649546  58.4950758 102.8823207  55.8789849  59.3875040
 102.5503830  56.1834447  57.9421657 104.8875009  52.5552094  58.5431648
 104.8736578  51.6593188  58.2063946 105.6047437  52.5622758  59.1769934
 106.7401140  52.9889435  60.5884775 106.4818917  53.9106505  60.5869106
 106.2086180  52.5919869  61.2785239 111.6847328  66.0940222  53.3674861
 111.8584206  65.5286644  52.6148713 112.1776220  66.8941117  53.1854351
  97.5024288  58.1054891  61.4338420  96.9577756  58.8814699  61.5658694
  98.3803638  58.4525695  61.2757541 104.2911905  51.4366475  53.8119218
 104.4127816  50.5083121  54.0110106 104.0013947  51.4505161  52.8997533
 107.1603095  49.1221385  56.9485938 107.1824792  49.1860718  55.9937917
 107.5771154  48.2825894  57.1426444 112.6722501  65.4106986  50.4671759
 113.3673406  66.0313679  50.6859074 113.0145651  64.5602337  50.7424137
  98.2890310  57.2324787  64.3268576  97.5472046  57.3807422  64.9133207
  97.9683054  57.4933053  63.4635326 114.5713924  62.8606692  51.9959090
 115.0965248  63.1993964  51.2708410 114.4836277  61.9253707  51.8122224
 106.2333973  66.7740765  64.1248966 106.5421099  66.5289912  64.9971666
 107.0309455  66.9787404  63.6367837 106.2554585  68.9278675  56.3554343
 105.8159575  68.4355054  57.0487200 107.0062702  68.3851643  56.1146418
  98.7346924  65.1190216  56.3578971  99.5604944  64.8193988  55.9777615
  98.3840976  64.3497838  56.8068760 103.7028457  64.4716684  58.4276645
 103.0808466  63.8087389  58.1278872 104.3733324  64.4977816  57.7450292
  96.9355529  63.0376542  57.3167905  96.0987437  62.6098717  57.1351906
  96.9079174  63.2308986  58.2538696 103.7752984  52.9498472  68.0209151
 103.8241140  53.8260595  67.6386920 104.3175499  52.4075865  67.4480794
 114.2607830  63.4939595  67.3010288 113.4703374  63.4763734  66.7614787
 114.0241185  64.0327889  68.0559324 114.3805705  60.3432062  64.6143016
 114.4303710  60.1782069  65.5558539 114.2719628  59.4759321  64.2240897
 103.2641964  63.0220607  51.9035105 103.4130084  63.7056072  51.2501778
 104.0708407  63.0025697  52.4184561 111.6709468  56.3262990  65.9302323
 112.5719330  56.1869455  65.6386321 111.7457442  56.4917445  66.8700500
 106.0052273  53.7029844  64.7755509 105.1355582  53.9963411  64.5038098
 106.2411753  54.2870289  65.4962773 115.8823902  62.7629003  64.8585038
 115.5908710  63.1258984  65.6948499 115.2696033  62.0496011  64.6798370
 114.1311090  57.8861618  63.3265096 114.6065212  58.0789264  62.5183947
 113.2076656  57.9420804  63.0808479 101.0194597  59.0485785  52.9096174
 100.7740639  58.1448115  53.1076384 101.1890511  59.0502935  51.9675652
 108.7091307  49.9209461  62.2920930 109.2273251  50.6570488  61.9667418
 108.3546439  50.2273455  63.1267689 100.2890244  54.7814143  50.4082336
  99.5959489  54.8558498  49.7522371 100.0441996  54.0174486  50.9303852
 108.9603901  46.3409744  57.8121826 109.2405655  45.6732933  58.4382253
 109.7454508  46.5338840  57.2996490 106.7637369  65.5168738  49.3746853
 106.1911336  66.1358925  48.9217324 107.3370163  66.0668100  49.9086775
 112.8312759  54.7627378  61.5593401 113.7830182  54.8625476  61.5805625
 112.6616210  53.9705646  62.0691486 110.8527139  51.8482961  61.7452802
 110.2577071  52.1287974  61.0499291 110.5676835  52.3376862  62.5169543
 109.9834629  65.8005888  50.5055435 110.9165302  65.7351450  50.7088310
 109.8957842  66.6362155  50.0469968 112.6122646  65.1171758  47.4659382
 112.5336277  64.7831622  48.3595140 113.4332313  65.6093526  47.4650855
 107.1484168  56.8529551  46.7162905 108.0943273  56.7235759  46.7851323
 106.7698413  56.1144212  47.1932333 113.1206052  48.5185557  56.6789797
 112.9230874  48.2100645  57.5633129 113.7305758  49.2447196  56.8087727
 107.0322860  60.9047297  68.1763562 107.9525870  61.0825896  68.3703609
 106.9972443  59.9603342  68.0243261 105.3327085  54.7779527  46.6517790
 104.4258540  54.4812640  46.7280504 105.6103066  54.4809345  45.7852077
  96.2505025  56.0985890  57.1016837  95.9307810  55.2451199  56.8091211
  95.7038454  56.3134469  57.8574804 100.0284933  58.8148331  60.8186343
 100.2470943  59.7465439  60.8374377 100.4410707  58.4556306  61.6041147
 106.9489151  49.3216417  52.8062032 106.1389879  48.9763502  53.1817278
 107.6373568  49.0123960  53.3949643 108.8779699  48.3994463  54.4286328
 109.4310738  48.8189917  55.0876351 109.1149785  47.4730212  54.4709284
 104.9012798  54.3881537  70.2089092 104.8009525  55.3375894  70.1401183
 104.6834340  54.0599776  69.3365162 104.1025870  51.6366462  46.7929770
 104.9645034  51.9621360  47.0525587 104.2876214  50.8497958  46.2802835
  96.1193285  59.7188802  59.0709958  95.4256757  59.3042755  58.5579913
  96.8666276  59.7609338  58.4743377 112.2558506  50.5094989  53.9364993
 111.6757175  51.1679793  53.5543045 111.9894439  49.6872333  53.5252410
 110.7062072  49.9100046  56.1386313 111.2061851  50.0216581  55.3300632
 111.3497680  49.6061099  56.7787121 104.7644068  57.8178676  69.0254154
 104.2811150  58.6179036  69.2318043 104.8505007  57.8286621  68.0721598
  98.0330028  59.6507056  56.9475973  98.0100716  59.7494743  55.9957856
  98.3430664  60.4972206  57.2693139 100.6917406  61.7083211  61.0622588
 101.6460659  61.6767153  60.9952519 100.4929929  61.2473834  61.8772813
 101.2816788  60.2784327  63.6293385 102.1009677  60.7728405  63.6528223
 101.5553596  59.3616295  63.6010953 111.0383384  52.6695079  52.9921341
 110.1509239  52.9544730  52.7741536 111.4537373  52.5088842  52.1448618
 114.3897920  52.6941600  56.7075680 115.1658310  53.1838052  56.9800297
 113.6646054  53.1199654  57.1647550  99.0467635  67.2502830  58.0792785
  98.9122102  66.4903231  57.5130783  98.6299697  67.9743730  57.6121574
 110.1826598  62.4339754  47.0869361 110.8862448  62.6389756  47.7027016
 109.4589246  63.0016516  47.3518444 111.0124408  58.1849615  53.2071631
 110.9559609  58.6418166  52.3679263 111.5652750  57.4240300  53.0294474
 114.8229214  53.9739347  54.0321750 114.5666148  53.5735982  54.8629958
 114.1982082  54.6883141  53.9071890 102.2036760  68.1472147  58.2911228
 102.0869145  69.0917580  58.1889918 101.3829207  67.8445709  58.6797027
 112.0913295  62.8722283  49.1367821 112.9258899  62.4403481  48.9545296
 111.9297638  62.7004297  50.0644715 111.7459187  59.3754396  50.5024160
 111.6907991  59.2098668  49.5612604 111.1205242  60.0830429  50.6586350
  96.5351702  54.6122461  64.3285582  97.1810566  54.1021415  64.8172807
  96.3268853  55.3491142  64.9029008 109.0605094  61.6803308  69.8277723
 109.9296254  61.8543960  69.4664358 108.5811846  62.4997725  69.7053452
 105.0555313  48.8762505  50.0809478 105.0433982  49.8204345  50.2377749
 105.9478734  48.6932651  49.7868940 103.2291275  68.8000409  61.5067157
 104.1318521  68.8324019  61.8233651 103.0028645  67.8700860  61.5213492
 104.9844877  67.5531396  58.1677235 104.0340508  67.5533257  58.0541607
 105.2877363  66.8064130  57.6513270 108.8707432  45.4705282  54.3355415
 108.1039828  44.9163769  54.4812098 109.2818137  45.5427151  55.1969567
 100.8749193  51.7590078  68.4260597 101.7380655  51.4026883  68.6363921
 100.3014604  51.4203972  69.1136001 113.3874092  75.1954839  55.1581413
 112.8238957  75.1044775  54.3897701 113.2726487  74.3754743  55.6383906
 110.9338524  76.6906030  57.9965634 111.7259816  76.3496855  57.5811933
 111.1735174  76.8001005  58.9167787 112.8929278  75.9514943  50.8683012
 113.6660154  75.4043930  50.7295888 113.2454677  76.8159193  51.0797474
 114.7314320  77.2791326  64.0749912 114.4404186  78.1836956  63.9596578
 115.3671305  77.3207853  64.7893981 115.2295556  72.1107609  48.5001462
 115.4821076  71.5889131  47.7384925 114.2920115  71.9473755  48.6028146
 114.9491844  74.0135715  50.7025837 114.8328103  73.3380619  51.3706922
 115.0594104  73.5268089  49.8857990 113.1416687  73.4166538  57.1036410
 112.2167184  73.2842752  57.3114102 113.3901100  74.1960757  57.6006352
 110.5025498  73.0599812  57.9380199 110.6317879  73.3134290  58.8519611
 109.8222949  73.6527520  57.6184854 114.6724985  83.7297062  54.0370673
 114.5949015  84.6804887  54.1159154 114.0686629  83.3842934  54.6945599
 113.6624785  75.6986601  58.8104306 114.2326142  76.1273869  58.1721790
 114.2532897  75.4169186  59.5088491 114.1549951  70.8650028  67.0565317
 113.5248612  71.5466309  67.2900714 114.0486039  70.7533110  66.1118455
 109.4494924  70.5321824  57.9831241 108.6593978  70.7879353  57.5071352
 109.9406171  71.3470162  58.0883282 111.4009669  70.8966404  54.9414718
 110.6040832  71.0085098  55.4598214 111.1735261  71.2353056  54.0755608
 107.7332627  70.7852315  60.4146232 107.9840665  71.6699325  60.6803808
 108.2692175  70.6056916  59.6421324 113.4330694  65.1670794  69.4190568
 113.0397639  64.6136993  70.0938212 114.2496834  65.4781373  69.8097086
 110.3992752  76.6054652  53.3304138 110.9117272  77.3997903  53.4809703
 111.0515465  75.9080943  53.2637739 112.2087636  79.7220409  55.4126891
 112.3854265  80.6438373  55.2247875 113.0044470  79.4078828  55.8421271
 111.4939993  71.7685041  65.2889054 111.3793508  70.8670298  65.5896153
 110.6384511  72.0148737  64.9373871 113.3318952  81.2398583  61.4137233
 113.8826377  81.1115646  60.6414227 112.4930428  81.5393472  61.0632126
 108.3641668  74.9343307  54.1063708 109.2016890  75.3440315  53.8897416
 108.5419936  73.9942749  54.0763902 113.2257563  67.2955369  55.6306888
 113.8001315  67.0730551  54.8980081 113.8128546  67.3644064  56.3835489
 113.5527150  69.3259830  49.6502773 112.7164463  69.6634517  49.9712048
 113.4131920  69.1908810  48.7129910 115.5280231  64.1696618  54.3581958
 114.8744643  63.8545635  53.7338572 115.4860705  63.5472359  55.0841780
 108.3867840  72.2734022  54.7774442 108.1892239  71.6803383  54.0525508
 107.8314504  71.9686232  55.4950381 114.3056923  70.7834188  54.6559414
 113.4924789  71.0828359  55.0624606 114.8015917  70.3889877  55.3733896
 113.7970998  68.3552544  60.2720649 114.4370377  68.2141303  59.5743612
 112.9648528  68.0687057  59.8959251 114.5731302  77.6554974  56.3855641
 115.3671900  77.1605294  56.1838216 113.8622994  77.1272837  56.0223347
 110.8814065  71.7998056  52.4615394 109.9511653  71.7382512  52.6785356
 110.9771537  71.2774009  51.6652035 110.7999614  68.3252869  55.0493636
 111.0606432  69.2398202  54.9402796 111.6216787  67.8577311  55.1990249
 112.2724540  69.7390626  62.2192460 112.9447593  69.5307988  61.5705109
 111.4454326  69.5412712  61.7797693 112.6752037  73.0133229  62.9794897
 112.5371835  72.2813468  63.5806436 113.5856960  72.9242129  62.6979085
 114.0163272  69.7118406  64.2874217 113.4800629  69.2609145  64.9395813
 113.4279980  69.8464315  63.5444681 112.3111815  86.4782456  58.1818875
 112.5508413  87.1100980  58.8597894 111.4681012  86.1270496  58.4684234
 113.4265531  69.1707058  46.8500680 112.5494997  69.0495858  46.4862927
 113.9023284  68.3793136  46.5979569 104.9467671  73.9584217  56.9442187
 105.6338711  73.6445947  56.3563203 104.7915799  74.8625582  56.6709439
 109.7502393  68.8474414  61.3727211 109.6660582  68.2400083  60.6377621
 108.9285099  69.3383432  61.3736707 114.3350274  79.9342855  63.5624109
 115.0359733  80.5679338  63.7153503 113.8645389  80.2757587  62.8019748
 109.9317992  79.4679210  60.4955211 110.5171429  78.7222898  60.6283115
 109.7342831  79.7783167  61.3791875 112.7856647  82.5030458  55.5117654
 112.1167023  82.9876586  55.0281694 112.6469517  82.7499678  56.4261032
 104.5235647  72.0384811  59.2159654 104.5619746  71.5048401  60.0096773
 104.0175940  71.5120016  58.5970632 111.9026409  66.8849351  62.7122197
 111.9667736  67.7464182  62.2999594 111.8393529  66.2723353  61.9794555
 111.3778682  68.9572484  66.3595231 112.0050720  68.5749561  66.9732755
 110.5206600  68.7386686  66.7250923 108.1544224  70.7648913  52.2913586
 108.4497665  69.8559591  52.2380640 107.2532260  70.7436652  51.9694588
 111.6838471  68.8404909  58.2741134 110.9625057  69.4540877  58.1348608
 112.4731727  69.3762674  58.1957780 114.4864785  66.1759336  64.5481786
 115.0099187  66.4221632  65.3108095 114.2677118  67.0079371  64.1284924
 109.8832066  68.4463011  52.4152911 109.5544772  67.5660389  52.2328017
 110.2371437  68.3910679  53.3029300 112.9973889  68.7335980  52.7828389
 113.3369962  69.2621902  52.0606997 113.4446010  69.0716386  53.5586955
 115.6917330  67.1173031  62.2331457 115.3514150  66.3180844  62.6352137
 114.9856336  67.4174742  61.6608290 114.9842036  67.2310602  50.9821681
 115.7050399  67.6091855  50.4785398 114.3607340  67.9499479  51.0856659
 113.8672381  70.8941464  58.4950758 113.7216961  71.2081767  59.3875040
 113.3897584  71.5126364  57.9421657 108.3418043  73.4346808  61.4338420
 107.7971511  74.2106616  61.5658694 109.2197393  73.7817613  61.2757541
 115.1305659  66.7658392  53.8119218 115.2521571  65.8375039  54.0110106
 114.8407702  66.7797078  52.8997533 109.1284065  72.5616705  64.3268576
 108.3865801  72.7099340  64.9133207 108.8076809  72.8224970  63.4635326
 109.5740678  80.4482133  56.3578971 110.3998698  80.1485905  55.9777615
 109.2234730  79.6789756  56.8068760 114.5422211  79.8008602  58.4276645
 113.9202221  79.1379307  58.1278872 115.2127078  79.8269734  57.7450292
 107.7749283  78.3668460  57.3167905 106.9381192  77.9390634  57.1351906
 107.7472929  78.5600903  58.2538696 114.6146739  68.2790390  68.0209151
 114.6634894  69.1552513  67.6386920 115.1569253  67.7367783  67.4480794
 114.1035718  78.3512525  51.9035105 114.2523839  79.0347989  51.2501778
 114.9102162  78.3317615  52.4184561 111.8588351  74.3777703  52.9096174
 111.6134393  73.4740033  53.1076384 112.0284266  74.3794853  51.9675652
 111.1283999  70.1106060  50.4082336 110.4353244  70.1850415  49.7522371
 110.8835751  69.3466404  50.9303852 107.0898780  71.4277808  57.1016837
 106.7701564  70.5743116  56.8091211 106.5432208  71.6426386  57.8574804
 110.8678687  74.1440249  60.8186343 111.0864697  75.0757357  60.8374377
 111.2804461  73.7848223  61.6041147 115.7406553  69.7173455  70.2089092
 115.6403280  70.6667812  70.1401183 115.5228095  69.3891694  69.3365162
 114.9419624  66.9658380  46.7929770 115.8038788  67.2913278  47.0525587
 115.1269968  66.1789876  46.2802835 106.9587040  75.0480720  59.0709958
 106.2650511  74.6334672  58.5579913 107.7060031  75.0901256  58.4743377
 115.6037823  73.1470594  69.0254154 115.1204904  73.9470954  69.2318043
 115.6898762  73.1578539  68.0721598 108.8723782  74.9798973  56.9475973
 108.8494471  75.0786661  55.9957856 109.1824419  75.8264124  57.2693139
 111.5311160  77.0375128  61.0622588 112.4854414  77.0059071  60.9952519
 111.3323684  76.5765752  61.8772813 112.1210542  75.6076244  63.6293385
 112.9403431  76.1020323  63.6528223 112.3947350  74.6908213  63.6010953
 109.8861389  82.5794748  58.0792785 109.7515857  81.8195149  57.5130783
 109.4693451  83.3035648  57.6121574 113.0430515  83.4764065  58.2911228
 112.9262899  84.4209497  58.1889918 112.2222961  83.1737626  58.6797027
 107.3745457  69.9414378  64.3285582 108.0204320  69.4313332  64.8172807
 107.1662608  70.6783060  64.9029008 114.0685029  84.1292327  61.5067157
 114.9712276  84.1615937  61.8233651 113.8422399  83.1992778  61.5213492
 111.7142948  67.0881995  68.4260597 112.5774409  66.7318800  68.6363921
 111.1408358  66.7495890  69.1136001 115.3629401  87.3676728  59.2159654
 115.4013501  86.8340319  60.0096773 114.8569694  86.8411934  58.5970632
  68.9536798   2.1676907  44.9064182  69.1933397   2.7995432  45.5843200
  68.1105995   1.8164947  45.1929541  80.8692830   6.2141208  41.8826720
  80.3057695   6.1231145  41.1143008  80.7545225   5.3941113  42.3629212
  78.4157262   7.7092400  44.7210940  79.2078554   7.3683224  44.3057240
  78.6553912   7.8187375  45.6413094  86.4492389   9.8812176  37.1941185
  85.7980368  10.4666256  36.8075199  87.2436751  10.4118371  37.2536222
  80.3748016   6.9701313  37.5928319  81.1478892   6.4230300  37.4541195
  80.7273415   7.8345562  37.8042780  82.2133058   8.2977695  50.7995218
  81.9222924   9.2023326  50.6841885  82.8490043   8.3394223  51.5139288
  87.9267654   7.5702608  37.7310169  87.2913487   7.6437234  38.4431074
  87.5965060   8.1596207  37.0529248  87.1722943   7.9839111  47.7945012
  86.8723666   8.8864150  47.6860819  86.8274003   7.7171294  48.6466165
  77.9844236   4.0786181  44.6625506  78.1136617   4.3320660  45.5764917
  77.3041687   4.6713889  44.3430161  82.1543723  14.7483431  40.7615980
  82.0767753  15.6991256  40.8404460  81.5505367  14.4029304  41.4190906
  84.2519441   7.1701489  42.5969849  84.7157787   7.4489192  41.8074472
  83.9876240   6.2684934  42.4142940  81.1443522   6.7172971  45.5349612
  81.7144880   7.1460239  44.8967097  81.7351634   6.4355555  46.2333798
  84.7134074   8.4397477  49.6142539  84.7778507   8.9017884  50.4500711
  84.0044998   7.8094841  49.7424849  84.4282092  10.1065584  39.4821519
  84.2927767  10.9517120  39.9106367  84.9691905  10.3084862  38.7187453
  77.8811489   7.6241022  40.0549445  78.3936010   8.4184272  40.2055009
  78.5334202   6.9267313  39.9883046  79.6906374  10.7406778  42.1372198
  79.8673003  11.6624743  41.9493182  80.4863208  10.4265198  42.5666578
  86.0550568  10.7289151  53.6121862  85.6114423   9.9425529  53.2942766
  86.7167782  10.9168301  52.9465752  80.8137690  12.2584952  48.1382540
  81.3645115  12.1302015  47.3659534  79.9749166  12.5579841  47.7877433
  88.1531807  11.0091950  51.6403263  88.1350282  11.8300832  51.1483532
  89.0751727  10.8846026  51.8653404  84.6104861   8.5236080  52.4826771
  85.1433197   7.7624368  52.2526079  84.0818942   8.2309732  53.2250926
  75.8460406   5.9529676  40.8309015  76.6835628   6.3626685  40.6142723
  76.0238674   5.0129119  40.8009209  85.9757573   7.6522072  39.9945583
  85.4478935   6.9174832  39.6818821  85.4745076   8.4296749  39.7485552
  87.0278252  14.1799790  35.9177242  86.3539951  14.4831487  36.5262200
  87.4144074  14.9828870  35.5682699  90.5317674   9.1821467  41.2895714
  90.0780002   8.3412377  41.3460904  89.9011641   9.8182865  41.6270494
  88.9750614  11.0197964  42.2245532  89.2673588  11.5803021  41.5057898
  89.4849234  11.3126525  42.9798691  84.9974495   7.1123621  34.8592625
  84.5593925   6.3959480  34.3998262  85.7384936   7.3399736  34.2977716
  83.9384239  11.7978315  43.3138985  83.8960418  12.0239161  42.3847517
  84.8546938  11.5641689  43.4624786  82.0550040   8.6741344  43.1100948
  82.8490638   8.1791664  42.9083523  81.3441732   8.1459207  42.7468654
  86.8744884  11.0559439  47.4613316  86.9281906  11.6250376  48.2291031
  86.0059665  11.2261324  47.0967353  84.6321316   9.2470366  46.7898785
  84.4932401   8.8789150  47.6624723  83.8435912   9.7618005  46.6182743
  85.2269468  14.3479462  38.1324322  85.4021223  13.8767505  38.9469944
  84.5402256  14.9745229  38.3605582  86.1826531   8.6251969  44.1787623
  85.8476363   8.5852739  45.0745273  85.6830476   7.9596684  43.7058033
  90.7739854  10.6806911  52.1130463  90.7152400   9.9966131  51.4461046
  91.1759372  11.4225901  51.6611089  79.7930553  17.4968825  44.9064182
  80.0327151  18.1287349  45.5843200  78.9499749  17.1456865  45.1929541
  72.4286408   4.9770587  43.6687494  73.1157448   4.6632317  43.0808509
  72.2734537   5.8811952  43.3954745  84.3058415  13.3047948  47.3105686
  84.2328586  14.1102919  47.8224990  83.8635808  13.5039913  46.4853707
  84.0948194  12.5419718  40.8208507  83.3115716  13.0841398  40.9146732
  84.7940940  13.0593697  41.2202748  86.7657098  13.2034782  49.4663844
  87.4785070  13.8382246  49.3939746  86.2747127  13.2998648  48.6503846
  81.8169012  10.9529225  50.2869415  82.5178471  11.5865708  50.4398809
  81.3464127  11.2943957  49.5265054  89.9423408   9.2947175  38.5717322
  90.2183252   9.1803769  39.4811196  89.0727906   8.8964660  38.5329495
  86.5777472  13.5433526  42.2150136  86.7599866  12.7255182  42.6777888
  87.4010458  13.7601218  41.7775026  86.9119637  12.4701711  39.4765184
  87.4407404  11.9594165  38.8635346  87.1747857  12.1544241  40.3410717
  77.4136730  10.4865580  47.2200518  77.9990167   9.7409268  47.3528422
  77.2161568  10.7969537  48.1037182  80.2675385  13.5216827  42.2362960
  79.5985760  14.0062955  41.7527000  80.1288255  13.7686048  43.1506339
  72.0054385   3.0571180  45.9404961  72.0438484   2.5234771  46.7342079
  71.4994677   2.5306386  45.3215938  84.4080654  15.5560571  48.8345619
  84.9598962  15.7192192  49.5994704  84.7486847  16.1465009  48.1625644
  89.2591528  10.3821828  54.6894273  89.8031432  10.9951787  54.1949228
  88.6778373  10.9401407  55.2061286  87.5449041  13.5042546  45.8209301
  87.4200180  12.7032286  45.3120246  88.2028132  13.9988740  45.3323271
  89.6083949  11.3051567  47.4488851  88.6614285  11.1856918  47.3767178
  89.9566722  10.4174065  47.5315112  86.6130383  11.1004283  43.6493203
  86.4655345  10.1720990  43.8300773  87.4383876  11.1224373  43.1650278
  90.2164504  11.9232842  44.7358076  91.1411052  11.7175703  44.5982527
  90.0479808  11.6749243  45.6447417  90.0059821  12.4418509  40.0920167
  90.1796698  11.8764931  39.3394020  90.4988712  13.2419404  39.9099657
  75.8236780   4.4533178  48.1583726  75.2790249   5.2292986  48.2904000
  76.7016130   4.8003983  48.0002848  90.9934993  11.7585273  37.1917066
  91.6885898  12.3791966  37.4104380  91.3358143  10.9080625  37.4669444
  76.6102802   3.5803074  51.0513883  75.8684538   3.7285710  51.6378513
  76.2895547   3.8411340  50.1880632  84.5546465  13.1219053  50.8494273
  84.8633591  12.8768199  51.7216973  85.3521947  13.3265691  50.3613143
  84.5767077  15.2756962  43.0799650  84.1372067  14.7833341  43.7732506
  85.3275194  14.7329930  42.8391725  77.0559416  11.4668503  43.0824278
  77.8817436  11.1672275  42.7022921  76.7053468  10.6976125  43.5314066
  82.0240949  10.8194971  45.1521951  81.4020958  10.1565676  44.8524179
  82.6945816  10.8456103  44.4695599  75.2568021   9.3854830  44.0413211
  74.4199929   8.9577004  43.8597212  75.2291666   9.5787273  44.9784002
  92.5820322   9.8417883  54.0255594  91.7915866   9.8242021  53.4860094
  92.3453677  10.3806176  54.7804631  81.5854456   9.3698895  38.6280412
  81.7342576  10.0534359  37.9747085  82.3920900   9.3503985  39.1429868
  79.3407089   5.3964072  39.6341481  79.0953131   4.4926402  39.8321691
  79.5103004   5.3981223  38.6920959  85.0849862  11.8647025  36.0992159
  84.5123829  12.4837212  35.6462631  85.6582655  12.4146387  36.6332081
  88.3047121  12.1484175  37.2300741  89.2377795  12.0829737  37.4333617
  88.2170334  12.9840442  36.7715274  90.9335138  11.4650046  34.1904689
  90.8548770  11.1309909  35.0840447  91.7544805  11.9571813  34.1896161
  78.3497425   5.1626619  47.5431650  78.5683435   6.0943726  47.5619684
  78.7623199   4.8034593  48.3286454  74.4405778   6.0667089  45.7955265
  73.7469249   5.6521042  45.2825219  75.1878769   6.1087626  45.1988684
  76.3542520   5.9985343  43.6721280  76.3313208   6.0973030  42.7203163
  76.6643157   6.8450494  43.9938446  79.0129898   8.0561498  47.7867894
  79.9673152   8.0245440  47.7197826  78.8142422   7.5952122  48.6018120
  79.6029280   6.6262614  50.3538692  80.4222169   7.1206693  50.3773529
  79.8766088   5.7094582  50.3256259  77.3680127  13.5981117  44.8038092
  77.2334595  12.8381518  44.2376090  76.9512189  14.3222017  44.3366881
  88.5039090   8.7818041  33.8114667  89.2074940   8.9868043  34.4272323
  87.7801739   9.3494803  34.0763751  80.5249253  14.4950434  45.0156535
  80.4081637  15.4395867  44.9135225  79.7041699  14.1923996  45.4042334
  90.4125787   9.2200570  35.8613127  91.2471391   8.7881769  35.6790602
  90.2510130   9.0482584  36.7890022  87.3817587   8.0281595  56.5523030
  88.2508746   8.2022248  56.1909664  86.9024338   8.8476012  56.4298759
  81.5503767  15.1478696  48.2312463  82.4531014  15.1802307  48.5478958
  81.3241137  14.2179147  48.2458799  83.3057369  13.9009683  44.8922542
  82.3553000  13.9011544  44.7786914  83.6089855  13.1542417  44.3758576
  99.0410062  19.7370221  45.9568304  99.6788472  19.6176969  45.2531644
  98.9230905  20.6851065  46.0156256  95.8499769  19.6897649  45.8929829
  95.5118280  19.5738714  45.0050364  96.7189537  19.2888814  45.8730835
  91.7086584  21.5433126  41.8826720  91.1451449  21.4523063  41.1143008
  91.5938979  20.7233030  42.3629212  96.3319552  20.8432501  51.8516034
  96.3208192  20.4485299  50.9796538  96.4940191  20.1098574  52.4449806
  89.2551016  23.0384317  44.7210940  90.0472308  22.6975142  44.3057240
  89.4947666  23.1479292  45.6413094  97.2886143  25.2104093  37.1941185
  96.6374123  25.7958174  36.8075199  98.0830506  25.7410288  37.2536222
  91.2141770  22.2993231  37.5928319  91.9872646  21.7522218  37.4541195
  91.5667169  23.1637480  37.8042780  93.0526813  23.6269613  50.7995218
  92.7616679  24.5315244  50.6841885  93.6883797  23.6686140  51.5139288
  93.9783020  21.0046461  47.3896578  94.5746592  20.7802484  46.6753541
  94.0357991  20.2631207  47.9922026  93.5508048  18.4585897  35.2246769
  93.8033569  17.9367418  34.4630232  92.6132607  18.2952042  35.3273453
  98.5951331  17.4621675  43.0321512  99.3814420  17.0441098  42.6811929
  98.8590035  18.3667767  43.2003161  98.7661408  22.8994525  37.7310169
  98.1307241  22.9729152  38.4431074  98.4358815  23.4888124  37.0529248
 103.9959758  17.3996908  43.9354491 104.7284930  16.8296125  44.1692320
 103.2399114  17.0118509  44.3760996  93.2704337  20.3614003  37.4271144
  93.1540595  19.6858906  38.0952228  93.3806597  19.8746377  36.6103297
  95.6135878  19.8224150  41.1317833  95.2494085  19.2954771  41.8430755
  96.4702994  19.4322619  40.9584319  95.2541365  14.8514049  36.1279182
  95.4215767  15.7194286  36.4949653  95.0638534  15.0141331  35.2040471
  98.0116698  23.3131028  47.7945012  97.7117421  24.2156067  47.6860819
  97.6667757  23.0463212  48.6466165  91.4629179  19.7644825  43.8281716
  90.5379676  19.6321039  44.0359408  91.7113593  20.5439044  44.3251659
 101.4113842  15.8313569  45.4742449 100.5030719  15.7628977  45.1801210
 101.3601437  16.3085514  46.3024275  95.2330586  17.3071707  37.1125849
  95.1130211  17.7528758  37.9511329  94.5383174  17.6557025  36.5539387
  88.8237990  19.4078099  44.6625506  88.9530372  19.6612578  45.5764917
  88.1435442  20.0005807  44.3430161  92.9937478  30.0775349  40.7615980
  92.9161507  31.0283174  40.8404460  92.3899121  29.7321221  41.4190906
  95.4854707  17.2503214  53.4177347  94.7088041  17.8097134  53.4080211
  96.1245270  17.7359997  53.9392217 103.2775488  14.0330007  47.2520323
 102.6349868  14.3262540  46.6060118 102.7730417  13.9182927  48.0573520
 100.9315652  17.7793180  37.9406183 101.8433508  18.0120567  37.7653880
 100.4225299  18.3630224  37.3781261  93.7401080  20.0588668  52.9795314
  94.4815764  20.5973711  52.7030137  93.0338065  20.6854956  53.1366865
  99.2156419  22.2017808  51.5767475  99.6239775  21.7600219  50.8322108
  98.4933681  21.6270436  51.8301668  95.5687489  17.1390415  48.9501032
  96.4148685  17.5629828  49.0935681  95.5086127  16.4824039  49.6439595
  99.5385234  22.7618999  45.3319764  98.9094096  22.9264713  44.6295832
  99.1510896  23.1760608  46.1030728 103.4174466  23.6973436  42.6864128
 102.7325504  24.0772338  42.1361161 103.5018315  24.3068763  43.4196076
  98.7186935  14.7994783  50.6082206  98.4747867  15.5536844  50.0716481
  98.9946865  15.1780131  51.4429453 100.6725398  21.3433395  49.2859471
 100.8842293  21.9865155  48.6093852 100.6255146  20.5095712  48.8181401
  98.2751626  13.9551216  46.1896043  97.4136106  14.2532470  46.4812781
  98.3014061  14.1721615  45.2577076  95.0913196  22.4993407  42.5969849
  95.5551541  22.7781110  41.8074472  94.8269994  21.5976851  42.4142940
  91.9837277  22.0464888  45.5349612  92.5538634  22.4752157  44.8967097
  92.5745389  21.7647473  46.2333798  94.0282082  18.6216559  39.4059414
  94.7306125  19.0737603  39.8733341  93.6962710  17.9800378  40.0339307
  92.4762443  17.2128316  53.7810624  91.8461104  17.8944597  54.0146020
  92.3698531  17.1011397  52.8363762  87.7707416  16.8800112  44.7076548
  86.9806470  17.1357640  44.2316658  88.2618663  17.6948450  44.8128588
 101.7871225  24.2205351  47.4581829 102.6088669  23.8185538  47.1764510
 101.7833628  24.1173585  48.4097944  89.7222161  17.2444691  41.6660025
  88.9253325  17.3563385  42.1843520  89.4947753  17.5831343  40.8000915
  95.5527829  23.7689394  49.6142539  95.6172261  24.2309801  50.4500711
  94.8438753  23.1386759  49.7424849  86.0545119  17.1330602  47.1391539
  86.3053157  18.0177612  47.4049115  86.5904667  16.9535204  46.3666630
 109.8777219  20.5644099  43.8066800 109.1240927  19.9951497  43.6510805
 110.0124760  20.5306764  44.7537435  95.2675847  25.4357502  39.4821519
  95.1321521  26.2809037  39.9106367  95.8085659  25.6376779  38.7187453
  91.7543186  11.5149082  56.1435875  91.3610132  10.9615280  56.8183519
  92.5709327  11.8259660  56.5342392  88.7205244  22.9532940  40.0549445
  89.2329765  23.7476190  40.2055009  89.3727957  22.2559230  39.9883046
  90.5300129  26.0698696  42.1372198  90.7066757  26.9916661  41.9493182
  91.3256962  25.7557115  42.5666578  94.6711147  12.9306961  53.7356131
  95.4120861  13.5314114  53.6560594  94.9029070  12.1884598  53.1774174
  89.8152485  18.1163328  52.0134361  89.7006000  17.2148585  52.3141460
  88.9597003  18.3627025  51.6619177  96.8944323  26.0581068  53.6121862
  96.4508177  25.2717447  53.2942766  97.5561537  26.2460219  52.9465752
  91.6531444  27.5876870  48.1382540  92.2038869  27.4593933  47.3659534
  90.8142920  27.8871759  47.7877433  98.9925561  26.3383868  51.6403263
  98.9744036  27.1592749  51.1483532  99.9145481  26.2137943  51.8653404
  95.4498615  23.8527998  52.4826771  95.9826952  23.0916286  52.2526079
  94.9212696  23.5601649  53.2250926  86.6854161  21.2821594  40.8309015
  87.5229383  21.6918602  40.6142723  86.8632428  20.3421036  40.8009209
  98.5818593  18.9496675  36.5192848  98.0665216  19.7201279  36.7581235
  98.3095901  18.2761811  37.1425910  96.1665704  13.7946375  41.5778086
  95.3107300  13.4053226  41.3983725  96.5792656  13.8738336  40.7177872
  97.6964851  11.3292719  45.9769646  97.1929646  11.2922854  45.1637451
  97.9895457  12.2385461  46.0366303  93.9407736  11.4131448  44.9835828
  94.8060733  11.2174257  44.6241717  94.0085245  11.1841800  45.9105185
 103.5552867  21.7029029  38.4546022 102.7782310  21.3640189  38.0101184
 104.2344348  21.7081653  37.7800987  98.3704896  16.8223767  38.3452629
  98.0655032  17.1369916  39.1962772  99.3235338  16.9005187  38.3879962
  96.8151328  22.9813990  39.9945583  96.2872689  22.2466750  39.6818821
  96.3138831  23.7588666  39.7485552 101.7944174  21.1763011  45.1112630
 101.1367848  21.8662272  45.1992758 102.5984573  21.5659443  45.4546616
  91.5470055  13.6433656  42.3552195  92.1213807  13.4208838  41.6225388
  92.1341038  13.7122351  43.1080796 100.6049633  19.5307383  43.1616571
 101.1181514  20.1637375  43.6638281 101.2550857  18.9308579  42.7959931
  91.8739643  15.6738117  36.3748080  91.0376955  16.0112804  36.6957355
  91.7344412  15.5387097  35.4375217  93.8492723  10.5174905  41.0827264
  93.1957136  10.2023922  40.4583879  93.8073197   9.8950646  41.8087087
  94.9603928  20.7994200  32.9980556  94.0530990  20.5683454  33.1971705
  95.4574960  20.0031820  33.1854538  97.8672007  29.5091708  35.9177242
  97.1933706  29.8123404  36.5262200  98.2537829  30.3120788  35.5682699
  97.0830464  17.0056839  45.4074912  96.1653025  17.2271786  45.2496600
  97.4990607  17.0803149  44.5486619  97.8665511  18.4048255  40.5377592
  98.6137330  18.9169652  40.2284714  98.1357101  18.0832307  41.3981986
  96.1392161  20.9006795  37.5204546  95.2303381  20.6165828  37.6177016
  96.1687245  21.3205874  36.6607853 101.3711429  24.5113385  41.2895714
 100.9173756  23.6704295  41.3460904 100.7405396  25.1474783  41.6270494
 100.3144348  15.4405371  42.5196381  99.5767105  14.9282757  42.8506624
 100.5671122  15.0005752  41.7079658  99.8144368  26.3489881  42.2245532
 100.1067343  26.9094939  41.5057898 100.3242989  26.6418442  42.9798691
  86.7080332  18.6212309  41.5019749  86.5104732  18.0281670  40.7770815
  86.1526996  18.3164520  42.2195687  94.6877056  18.5135416  43.6214342
  94.7425665  17.5609252  43.5456818  93.8768258  18.6694855  44.1055640
  95.8368249  22.4415539  34.8592625  95.3987679  21.7251398  34.3998262
  96.5778690  22.6691654  34.2977716  92.6269415  17.1312476  41.3804721
  91.8137281  17.4306646  41.7869913  93.1228410  16.7368164  42.0979203
  94.7777993  27.1270233  43.3138985  94.7354172  27.3531079  42.3847517
  95.6940692  26.8933607  43.4624786  98.2243627  17.5954300  50.2119614
  98.5793015  17.8225773  51.0714080  98.8715758  17.9272677  49.5896870
 103.9541364  20.7172736  40.9168943 103.8159263  20.9074332  39.9890133
 103.5977583  21.4792119  41.3736995  92.1183490  14.7030831  46.9965956
  92.7582870  14.5619590  46.2988919  91.2861021  14.4165344  46.6204558
 103.9810744  22.7849263  45.9280215 104.4147250  22.6924552  46.7763269
 104.6942324  22.7606763  45.2900231  92.8943794  24.0033262  43.1100948
  93.6884393  23.5083582  42.9083523  92.1835487  23.4751125  42.7468654
  97.7138639  26.3851357  47.4613316  97.7675661  26.9542293  48.2291031
  96.8453420  26.5553242  47.0967353  89.2026558  18.1476343  39.1860701
  88.2724146  18.0860799  39.4030663  89.2984030  17.6252296  38.3897342
  89.1212107  14.6731156  41.7738942  89.3818924  15.5876489  41.6648103
  89.9429279  14.2055599  41.9235555  90.5937032  16.0868913  48.9437767
  91.2660085  15.8786275  48.2950416  89.7666818  15.8890999  48.5042999
 104.8426293  22.8272964  48.4613100 105.0362183  23.7318774  48.7072375
 104.7426911  22.3680383  49.2951685  96.4962604  12.7130854  50.9603428
  95.8490519  13.4120804  50.8667904  97.2663619  13.1466998  51.3279676
  99.9041402  22.9779706  54.0353981  99.7526908  22.7490258  53.1184065
  99.8946081  23.9350308  54.0485326  96.6726738  20.5511619  49.0200247
  97.6018798  20.7022779  48.8469215  96.2517768  20.6395640  48.1648894
  95.4715070  24.5762284  46.7898785  95.3326156  24.2081068  47.6624723
  94.6829666  25.0909923  46.6182743  96.0663222  29.6771380  38.1324322
  96.2414978  29.2059423  38.9469944  95.3796010  30.3037146  38.3605582
  97.0220285  23.9543886  44.1787623  96.6870118  23.9144656  45.0745273
  96.5224231  23.2888602  43.7058033  90.9964529  19.3611516  49.7040204
  90.8584327  18.6291755  50.3051743  91.9069453  19.2720416  49.4224392
  99.9579477  21.2999921  34.4524683  99.3408648  20.5746749  34.3557735
  99.4895965  22.0609281  34.1091757  93.6246830  19.0731476  49.1923884
  94.3346448  18.4324668  49.1510502  93.5816138  19.3244370  50.1150064
 101.6133609  26.0098829  52.1130463 101.5546155  25.3258049  51.4461046
 102.0153127  26.7517819  51.6611089  92.3375764  16.0596693  51.0119523
  91.8013121  15.6087432  51.6641119  91.7492472  16.1942602  50.2689987
  90.6324307  32.8260743  44.9064182  90.8720906  33.4579267  45.5843200
  89.7893504  32.4748783  45.1929541  91.7478023  15.5185345  33.5745987
  90.8707489  15.3974146  33.2108233  92.2235776  14.7271423  33.3224875
 101.6151016  23.9738413  50.3444443 100.7277795  23.6364335  50.4670841
 102.1849567  23.2421444  50.5813208  83.2680163  20.3062505  43.6687494
  83.9551203  19.9924235  43.0808509  83.1128292  21.2103869  43.3954745
  88.0714885  15.1952701  48.0972518  87.9873074  14.5878371  47.3622928
  87.2497592  15.6861719  48.0982014  95.1452169  28.6339865  47.3105686
  95.0722341  29.4394837  47.8224990  94.7029562  28.8331831  46.4853707
  94.9341949  27.8711635  40.8208507  94.1509471  28.4133315  40.9146732
  95.6334694  28.3885615  41.2202748  98.2438599  13.6806265  43.4642713
  98.7407299  12.9276227  43.1443783  97.4725580  13.7170581  42.8985922
 106.0968356  19.3846630  45.1061004 106.0858233  20.2671346  44.7354937
 105.2285736  19.0318181  44.9115541  97.6050853  28.5326699  49.4663844
  98.3178825  29.1674164  49.3939746  97.1140881  28.6290565  48.6503846
  99.3268380  22.4377952  41.0381136  98.3924658  22.5579414  40.8685840
  99.5045048  21.5350419  40.7741146  94.8273568  15.8223648  43.1914397
  94.4571355  15.2694688  43.8795303  95.3232660  15.2181781  42.6389397
 102.7140931  18.2795271  41.5731170 103.1801383  19.1123263  41.4991473
 103.1648432  17.8140253  42.2776429  92.6562766  26.2821143  50.2869415
  93.3572226  26.9157626  50.4398809  92.1857881  26.6235874  49.5265054
 100.7817162  24.6239092  38.5717322 101.0577006  24.5095687  39.4811196
  99.9121661  24.2256577  38.5329495 100.4564052  18.8365750  48.1121966
  99.8035502  19.0841658  47.4574418 100.8344432  18.0229888  47.7784443
  97.4171226  28.8725443  42.2150136  97.5993621  28.0547099  42.6777888
  98.2404212  29.0893136  41.7775026  97.7513392  27.7993628  39.4765184
  98.2801158  27.2886083  38.8635346  98.0141611  27.4836159  40.3410717
  96.5051625  19.5785561  54.5988003  95.8292262  19.4779691  55.2690378
  97.3279259  19.4224775  55.0624000  88.2530484  25.8157498  47.2200518
  88.8383921  25.0701186  47.3528422  88.0555323  26.1261454  48.1037182
  91.1069140  28.8508745  42.2362960  90.4379515  29.3354873  41.7527000
  90.9682009  29.0977966  43.1506339  82.8448139  18.3863098  45.9404961
  82.8832239  17.8526689  46.7342079  82.3388432  17.8598303  45.3215938
  95.2474408  30.8852489  48.8345619  95.7992716  31.0484110  49.5994704
  95.5880602  31.4756926  48.1625644  90.2238901  13.2327638  49.4367503
  90.2880228  14.0942469  49.0244901  90.1606022  12.6201640  48.7039862
  89.6991174  15.3050771  53.0840538  90.3263213  14.9227848  53.6978062
  88.8419093  15.0864973  53.4496230 100.0985282  25.7113746  54.6894273
 100.6425186  26.3243704  54.1949228  99.5172127  26.2693325  55.2061286
  86.4756717  17.1127200  39.0158892  86.7710158  16.2037879  38.9625946
  85.5744752  17.0914940  38.6939895  98.3842795  28.8334464  45.8209301
  98.2593935  28.0324204  45.3120246  99.0421887  29.3280658  45.3323271
  90.0050964  15.1883197  44.9986441  89.2837549  15.8019164  44.8593914
  90.7944219  15.7240961  44.9203087 100.4477704  26.6343484  47.4488851
  99.5008039  26.5148835  47.3767178 100.7960477  25.7465982  47.5315112
  92.8077277  12.5237623  51.2727093  93.3311679  12.7699920  52.0353402
  92.5889610  13.3557658  50.8530230  88.2044558  14.7941298  39.1398218
  87.8757264  13.9138677  38.9573324  88.5583929  14.7388966  40.0274607
  97.4524137  26.4296200  43.6493203  97.3049100  25.5012908  43.8300773
  98.2777631  26.4516291  43.1650278  91.3186381  15.0814268  39.5073695
  91.6582454  15.6100189  38.7852304  91.7658502  15.4194674  40.2832262
 101.0558259  27.2524759  44.7358076 101.9804806  27.0467621  44.5982527
 100.8873562  27.0041160  45.6447417  94.0129822  13.4651318  48.9576763
  93.6726643  12.6659131  49.3597443  93.3068828  13.7653029  48.3853597
  93.3054529  13.5788889  37.7066988  94.0262891  13.9570142  37.2030705
  92.6819833  14.2977766  37.8101966  97.4485651  14.2834038  38.6425320
  97.6649266  15.1658676  38.3414149  96.9679719  13.8920252  37.9130962
  92.1884873  17.2419751  45.2196065  92.0429454  17.5560054  46.1120346
  91.7110076  17.8604652  44.6666964  94.0481256  14.2322299  45.2676955
  94.0342824  13.3363393  44.9309252  94.7653684  14.2392963  45.9015241
  95.9007386  14.6659640  47.3130082  95.6425164  15.5876710  47.3114412
  95.3692427  14.2690074  48.0030546 100.8453575  27.7710427  40.0920167
 101.0190453  27.2056849  39.3394020 101.3382466  28.5711322  39.9099657
  86.6630535  19.7825096  48.1583726  86.1184003  20.5584904  48.2904000
  87.5409885  20.1295900  48.0002848  93.4518152  13.1136680  40.5364525
  93.5734063  12.1853326  40.7355412  93.1620194  13.1275366  39.6242840
 106.6992966  20.5346850  41.7110467 107.1424112  19.7854175  41.3129590
 105.8219477  20.5256986  41.3284199 101.8328748  27.0877191  37.1917066
 102.5279652  27.7083884  37.4104380 102.1751898  26.2372542  37.4669444
  87.4496557  18.9094992  51.0513883  86.7078293  19.0577627  51.6378513
  87.1289301  19.1703258  50.1880632 103.7320171  24.5376897  38.7204396
 104.2571495  24.8764169  37.9953716 103.6442523  23.6023912  38.5367531
  95.3940219  28.4510970  50.8494273  95.7027346  28.2060117  51.7216973
  96.1915701  28.6557609  50.3613143  95.4160832  30.6048880  43.0799650
  94.9765822  30.1125259  43.7732506  96.1668948  30.0621848  42.8391725
  87.8953171  26.7960421  43.0824278  88.7211190  26.4964193  42.7022921
  87.5447222  26.0268043  43.5314066  92.8634704  26.1486889  45.1521951
  92.2414713  25.4857594  44.8524179  93.5339571  26.1748021  44.4695599
  86.0961776  24.7146747  44.0413211  85.2593684  24.2868922  43.8597212
  86.0685421  24.9079191  44.9784002  92.9359231  14.6268677  54.7454457
  92.9847387  15.5030800  54.3632227  93.4781745  14.0846070  54.1726100
 103.4214077  25.1709800  54.0255594 102.6309621  25.1533939  53.4860094
 103.1847431  25.7098094  54.7804631 103.5411952  22.0202267  51.3388323
 103.5909957  21.8552274  52.2803846 103.4325875  21.1529526  50.9486204
  92.4248211  24.6990812  38.6280412  92.5736331  25.3826277  37.9747085
  93.2314654  24.6795902  39.1429868 100.8315714  18.0033195  52.6547630
 101.7325577  17.8639659  52.3631627 100.9063689  18.1687649  53.5945807
  95.1658520  15.3800049  51.5000816  94.2961829  15.6733615  51.2283404
  95.4018000  15.9640494  52.2208080 105.0430149  24.4399208  51.5830344
 104.7514957  24.8029189  52.4193805 104.4302280  23.7266216  51.4043676
 106.2425831  22.0052088  44.1032915 107.0772722  22.4441892  44.2670475
 106.3784960  21.5290741  43.2841160 103.2917337  19.5631823  50.0510402
 103.7671459  19.7559469  49.2429254 102.3682902  19.6191009  49.8053786
  90.1800844  20.7255990  39.6341481  89.9346886  19.8218320  39.8321691
  90.3496758  20.7273140  38.6920959  97.8697553  11.5979666  49.0166236
  98.3879497  12.3340693  48.6912725  97.5152686  11.9043660  49.8512995
  89.4496491  16.4584348  37.1327642  88.7565736  16.5328702  36.4767678
  89.2048243  15.6944691  37.6549159  95.9243616  27.1938943  36.0992159
  95.3517583  27.8129130  35.6462631  96.4976410  27.7438304  36.6332081
 101.9919006  16.4397583  48.2838708 102.9436429  16.5395680  48.3050932
 101.8222456  15.6475851  48.7936792 100.0133385  13.5253166  48.4698109
  99.4183318  13.8058179  47.7744598  99.7283082  14.0147067  49.2414850
  99.1440876  27.4776093  37.2300741 100.0771549  27.4121655  37.4333617
  99.0564089  28.3132360  36.7715274 101.7728893  26.7941963  34.1904689
 101.6942524  26.4601827  35.0840447 102.5938559  27.2863731  34.1896161
 104.4707084  19.6603703  47.3981008 104.4383404  18.7219703  47.5840691
 105.0807707  19.7387739  46.6646833  96.3090415  18.5299756  33.4408212
  97.2549519  18.4005964  33.5096630  95.9304660  17.7914417  33.9177640
 104.6201572  16.4514746  47.4439291 104.1040621  15.6673203  47.2569220
 105.5041521  16.1233463  47.6085810 110.2883634  20.7219709  46.5387044
 111.0187022  20.4604997  47.0994748 109.6790579  19.9848431  46.5789112
 108.3698931  18.8627572  47.1361496 107.6432094  18.7283537  46.5277987
 107.9546218  19.1704401  47.9418214  96.1929107  22.5817502  54.9008869
  97.1132117  22.7596101  55.0948915  96.1578690  21.6373547  54.7488568
  94.4933332  16.4549732  33.3763097  93.5864787  16.1582845  33.4525811
  94.7709313  16.1579550  32.5097383  85.4111272  17.7756095  43.8262143
  85.0914056  16.9221403  43.5336517  84.8644700  17.9904673  44.5820111
  89.1891180  20.4918536  47.5431650  89.4077189  21.4235644  47.5619684
  89.6016954  20.1326511  48.3286454  96.1095397  10.9986622  39.5307338
  95.2996126  10.6533707  39.9062584  96.7979814  10.6894165  40.1194950
  94.0619045  16.0651742  56.9334399  93.9615772  17.0146099  56.8646490
  93.8440587  15.7369981  56.0610469  93.2632116  13.3136667  33.5175076
  94.1251280  13.6391565  33.7770893  93.4482461  12.5268163  33.0048142
  85.2799532  21.3959007  45.7955265  84.5863004  20.9812960  45.2825219
  86.0272523  21.4379543  45.1988684  93.9250315  19.4948881  55.7499460
  93.4417397  20.2949241  55.9563349  94.0111254  19.5056826  54.7966904
  87.1936275  21.3277261  43.6721280  87.1706963  21.4264948  42.7203163
  87.5036911  22.1742411  43.9938446  89.8523653  23.3853416  47.7867894
  90.8066906  23.3537358  47.7197826  89.6536176  22.9244039  48.6018120
  90.4423035  21.9554532  50.3538692  91.2615924  22.4498610  50.3773529
  90.7159842  21.0386500  50.3256259 100.1989631  14.3465284  39.7166647
  99.3115486  14.6314935  39.4986842 100.6143620  14.1859047  38.8693924
 103.5504167  14.3711805  43.4320987 104.3264557  14.8608257  43.7045603
 102.8252301  14.7969859  43.8892856 105.9876726  15.0839424  44.4894927
 106.5821216  14.8435160  43.7788235 106.0603309  14.3646555  45.1168464
  88.2073881  28.9273035  44.8038092  88.0728349  28.1673436  44.2376090
  87.7905944  29.6513935  44.3366881  99.3432844  24.1109959  33.8114667
 100.0468694  24.3159961  34.4272323  98.6195493  24.6786721  34.0763751
 100.1730655  19.8619820  39.9316938 100.1165856  20.3188371  39.0924570
 100.7258997  19.1010504  39.7539780 103.9835461  15.6509552  40.7567057
 103.7272395  15.2506187  41.5875265 103.3588329  16.3653346  40.6317196
 108.2947798  18.3905625  43.2638348 107.7347356  18.4598814  44.0369911
 107.6891302  18.2146610  42.5437845  91.3643007  29.8242352  45.0156535
  91.2475391  30.7687785  44.9135225  90.5435453  29.5215914  45.4042334
 101.2519542  24.5492488  35.8613127 102.0865146  24.1173686  35.6790602
 101.0903885  24.3774502  36.7890022 100.9065434  21.0524601  37.2269467
 100.8514238  20.8868873  36.2857911 100.2811489  21.7600634  37.3831656
  85.6957949  16.2892666  51.0530889  86.3416813  15.7791619  51.5418114
  85.4875100  17.0261347  51.6274314  98.2211341  23.3573513  56.5523030
  99.0902501  23.5314165  56.1909664  97.7418093  24.1767930  56.4298759
  94.2161559  10.5532710  36.8054785  94.2040229  11.4974550  36.9623056
  95.1084981  10.3702856  36.5114246  92.3897521  30.4770614  48.2312463
  93.2924768  30.5094224  48.5478958  92.1634891  29.5471065  48.2458799
  94.1451123  29.2301601  44.8922542  93.1946754  29.2303462  44.7786914
  94.4483610  28.4834335  44.3758576  90.0355440  13.4360283  55.1505903
  90.8986901  13.0797087  55.3609228  89.4620851  13.0974177  55.8381307
 109.8803817  35.0662139  45.9568304 110.5182227  34.9468886  45.2531644
 109.7624660  36.0142983  46.0156256 106.6893523  35.0189567  45.8929829
 106.3512035  34.9030632  45.0050364 107.5583291  34.6180732  45.8730835
 102.5480339  36.8725043  41.8826720 101.9845204  36.7814980  41.1143008
 102.4332734  36.0524948  42.3629212 107.1713306  36.1724419  51.8516034
 107.1601947  35.7777217  50.9796538 107.3333946  35.4390491  52.4449806
 100.0944771  38.3676235  44.7210940 100.8866063  38.0267060  44.3057240
 100.3341421  38.4771210  45.6413094 108.1279898  40.5396011  37.1941185
 107.4767877  41.1250092  36.8075199 108.9224260  41.0702206  37.2536222
 102.0535525  37.6285148  37.5928319 102.8266401  37.0814135  37.4541195
 102.4060924  38.4929398  37.8042780 103.8920567  38.9561531  50.7995218
 103.6010433  39.8607161  50.6841885 104.5277552  38.9978058  51.5139288
 104.8176774  36.3338379  47.3896578 105.4140346  36.1094401  46.6753541
 104.8751746  35.5923125  47.9922026 104.3901803  33.7877814  35.2246769
 104.6427323  33.2659336  34.4630232 103.4526362  33.6243960  35.3273453
 109.4345085  32.7913593  43.0321512 110.2208175  32.3733016  42.6811929
 109.6983790  33.6959685  43.2003161 109.6055163  38.2286443  37.7310169
 108.9700996  38.3021070  38.4431074 109.2752569  38.8180042  37.0529248
 114.8353512  32.7288826  43.9354491 115.5678684  32.1588043  44.1692320
 114.0792868  32.3410426  44.3760996 104.1098091  35.6905920  37.4271144
 103.9934349  35.0150824  38.0952228 104.2200351  35.2038294  36.6103297
 106.4529632  35.1516067  41.1317833 106.0887839  34.6246688  41.8430755
 107.3096748  34.7614537  40.9584319 112.3578933  26.4410400  48.3949099
 112.0262258  27.3105811  48.1710314 111.7624546  26.1246684  49.0743130
 106.0935119  30.1805967  36.1279182 106.2609522  31.0486204  36.4949653
 105.9032288  30.3433249  35.2040471 108.8510452  38.6422946  47.7945012
 108.5511175  39.5447985  47.6860819 108.5061512  38.3755129  48.6466165
 102.3022934  35.0936743  43.8281716 101.3773430  34.9612957  44.0359408
 102.5507347  35.8730962  44.3251659 112.2507596  31.1605486  45.4742449
 111.3424473  31.0920895  45.1801210 112.1995192  31.6377431  46.3024275
 106.0724340  32.6363625  37.1125849 105.9523965  33.0820675  37.9511329
 105.3776928  32.9848942  36.5539387  99.6631745  34.7370016  44.6625506
  99.7924126  34.9904495  45.5764917  98.9829196  35.3297724  44.3430161
 103.8331232  45.4067266  40.7615980 103.7555262  46.3575092  40.8404460
 103.2292876  45.0613139  41.4190906 106.3248462  32.5795132  53.4177347
 105.5481796  33.1389052  53.4080211 106.9639025  33.0651915  53.9392217
 114.1169243  29.3621925  47.2520323 113.4743623  29.6554458  46.6060118
 113.6124171  29.2474845  48.0573520 111.7709406  33.1085098  37.9406183
 112.6827262  33.3412485  37.7653880 111.2619053  33.6922142  37.3781261
 104.5794834  35.3880585  52.9795314 105.3209519  35.9265629  52.7030137
 103.8731820  36.0146874  53.1366865 110.0550174  37.5309726  51.5767475
 110.4633530  37.0892136  50.8322108 109.3327435  36.9562353  51.8301668
 106.4081244  32.4682332  48.9501032 107.2542439  32.8921746  49.0935681
 106.3479882  31.8115957  49.6439595 110.3778989  38.0910916  45.3319764
 109.7487851  38.2556630  44.6295832 109.9904651  38.5052526  46.1030728
 114.2568220  39.0265354  42.6864128 113.5719259  39.4064256  42.1361161
 114.3412070  39.6360681  43.4196076 109.5580689  30.1286701  50.6082206
 109.3141621  30.8828761  50.0716481 109.8340620  30.5072048  51.4429453
 111.5119152  36.6725313  49.2859471 111.7236047  37.3157073  48.6093852
 111.4648900  35.8387630  48.8181401 109.1145381  29.2843134  46.1896043
 108.2529860  29.5824387  46.4812781 109.1407816  29.5013533  45.2577076
 105.9306950  37.8285324  42.5969849 106.3945296  38.1073027  41.8074472
 105.6663748  36.9268769  42.4142940 102.8231031  37.3756806  45.5349612
 103.3932389  37.8044074  44.8967097 103.4139143  37.0939391  46.2333798
 104.8675836  33.9508477  39.4059414 105.5699880  34.4029520  39.8733341
 104.5356465  33.3092296  40.0339307 103.3156198  32.5420233  53.7810624
 102.6854859  33.2236514  54.0146020 103.2092286  32.4303315  52.8363762
  98.6101170  32.2092029  44.7076548  97.8200224  32.4649558  44.2316658
  99.1012418  33.0240367  44.8128588 112.6264980  39.5497269  47.4581829
 113.4482424  39.1477456  47.1764510 112.6227383  39.4465503  48.4097944
 100.5615916  32.5736609  41.6660025  99.7647079  32.6855303  42.1843520
 100.3341508  32.9123261  40.8000915 106.3921583  39.0981312  49.6142539
 106.4566016  39.5601719  50.4500711 105.6832507  38.4678677  49.7424849
  96.8938873  32.4622520  47.1391539  97.1446912  33.3469530  47.4049115
  97.4298422  32.2827121  46.3666630 106.1069601  40.7649419  39.4821519
 105.9715276  41.6100955  39.9106367 106.6479414  40.9668697  38.7187453
 102.5936941  26.8440999  56.1435875 102.2003886  26.2907198  56.8183519
 103.4103081  27.1551578  56.5342392  99.5598998  38.2824857  40.0549445
 100.0723519  39.0768108  40.2055009 100.2121711  37.5851148  39.9883046
 101.3693883  41.3990614  42.1372198 101.5460511  42.3208578  41.9493182
 102.1650717  41.0849033  42.5666578 105.5104902  28.2598878  53.7356131
 106.2514615  28.8606031  53.6560594 105.7422825  27.5176516  53.1774174
 100.6546240  33.4455246  52.0134361 100.5399755  32.5440503  52.3141460
  99.7990757  33.6918942  51.6619177 107.7338077  41.3872986  53.6121862
 107.2901932  40.6009364  53.2942766 108.3955291  41.5752136  52.9465752
 102.4925199  42.9168787  48.1382540 103.0432624  42.7885851  47.3659534
 101.6536675  43.2163677  47.7877433 109.8319316  41.6675786  51.6403263
 109.8137791  42.4884667  51.1483532 110.7539236  41.5429861  51.8653404
 106.2892370  39.1819915  52.4826771 106.8220706  38.4208203  52.2526079
 105.7606451  38.8893567  53.2250926 109.4562065  24.2879981  48.0120413
 109.1126334  25.1781623  47.9359524 109.8241027  24.0981639  47.1489998
  97.5247915  36.6113512  40.8309015  98.3623137  37.0210520  40.6142723
  97.7026183  35.6712954  40.8009209 109.4212347  34.2788592  36.5192848
 108.9058971  35.0493197  36.7581235 109.1489656  33.6053729  37.1425910
 107.0059458  29.1238293  41.5778086 106.1501055  28.7345144  41.3983725
 107.4186410  29.2030254  40.7177872 108.5358605  26.6584636  45.9769646
 108.0323401  26.6214772  45.1637451 108.8289212  27.5677379  46.0366303
 104.7801491  26.7423366  44.9835828 105.6454488  26.5466175  44.6241717
 104.8479000  26.5133718  45.9105185 114.3946621  37.0320947  38.4546022
 113.6176064  36.6932107  38.0101184 115.0738102  37.0373570  37.7800987
 109.2098651  32.1515684  38.3452629 108.9048786  32.4661834  39.1962772
 110.1629093  32.2297104  38.3879962 107.6545082  38.3105908  39.9945583
 107.1266444  37.5758667  39.6818821 107.1532585  39.0880584  39.7485552
 112.6337928  36.5054928  45.1112630 111.9761603  37.1954190  45.1992758
 113.4378328  36.8951360  45.4546616 102.3863810  28.9725574  42.3552195
 102.9607562  28.7500756  41.6225388 102.9734792  29.0414269  43.1080796
 111.4443387  34.8599301  43.1616571 111.9575269  35.4929293  43.6638281
 112.0944611  34.2600496  42.7959931 102.7133397  31.0030035  36.3748080
 101.8770709  31.3404722  36.6957355 102.5738167  30.8679015  35.4375217
 104.6886478  25.8466823  41.0827264 104.0350890  25.5315840  40.4583879
 104.6466952  25.2242563  41.8087087 105.7997683  36.1286118  32.9980556
 104.8924744  35.8975371  33.1971705 106.2968715  35.3323737  33.1854538
 108.7065761  44.8383625  35.9177242 108.0327460  45.1415322  36.5262200
 109.0931583  45.6412706  35.5682699 107.9224218  32.3348757  45.4074912
 107.0046779  32.5563704  45.2496600 108.3384362  32.4095067  44.5486619
 108.7059266  33.7340172  40.5377592 109.4531085  34.2461569  40.2284714
 108.9750855  33.4124225  41.3981986 106.9785916  36.2298713  37.5204546
 106.0697135  35.9457746  37.6177016 107.0081000  36.6497791  36.6607853
 112.2105183  39.8405302  41.2895714 111.7567510  38.9996212  41.3460904
 111.5799150  40.4766701  41.6270494 111.1538103  30.7697288  42.5196381
 110.4160860  30.2574675  42.8506624 111.4064876  30.3297670  41.7079658
 110.6538123  41.6781799  42.2245532 110.9461097  42.2386856  41.5057898
 111.1636743  41.9710360  42.9798691 111.2549730  23.5473540  43.1138151
 111.5608607  22.6870904  42.8264066 111.9802335  24.1391161  42.9137145
  97.5474086  33.9504227  41.5019749  97.3498486  33.3573588  40.7770815
  96.9920750  33.6456437  42.2195687 105.5270810  33.8427334  43.6214342
 105.5819420  32.8901170  43.5456818 104.7162012  33.9986773  44.1055640
 106.6762004  37.7707457  34.8592625 106.2381434  37.0543316  34.3998262
 107.4172445  37.9983571  34.2977716 103.4663170  32.4604393  41.3804721
 102.6531035  32.7598564  41.7869913 103.9622164  32.0660082  42.0979203
 105.6171748  42.4562150  43.3138985 105.5747927  42.6822996  42.3847517
 106.5334447  42.2225525  43.4624786 109.0637382  32.9246218  50.2119614
 109.4186769  33.1517691  51.0714080 109.7109513  33.2564595  49.5896870
 114.7935119  36.0464654  40.9168943 114.6553017  36.2366250  39.9890133
 114.4371337  36.8084036  41.3736995 102.9577245  30.0322749  46.9965956
 103.5976624  29.8911508  46.2988919 102.1254775  29.7457262  46.6204558
 114.8204498  38.1141181  45.9280215 115.2541005  38.0216470  46.7763269
 115.5336079  38.0898681  45.2900231 103.7337549  39.3325179  43.1100948
 104.5278147  38.8375499  42.9083523 103.0229241  38.8043042  42.7468654
 108.5532393  41.7143275  47.4613316 108.6069415  42.2834211  48.2291031
 107.6847174  41.8845160  47.0967353 100.0420312  33.4768261  39.1860701
  99.1117900  33.4152716  39.4030663 100.1377784  32.9544214  38.3897342
  99.9605861  30.0023074  41.7738942 100.2212678  30.9168407  41.6648103
 100.7823033  29.5347516  41.9235555 101.4330786  31.4160831  48.9437767
 102.1053840  31.2078193  48.2950416 100.6060573  31.2182917  48.5042999
 115.6820048  38.1564881  48.4613100 115.8755938  39.0610692  48.7072375
 115.5820666  37.6972300  49.2951685 107.3356358  28.0422772  50.9603428
 106.6884274  28.7412722  50.8667904 108.1057374  28.4758916  51.3279676
 110.7435156  38.3071624  54.0353981 110.5920663  38.0782176  53.1184065
 110.7339836  39.2642225  54.0485326 107.5120493  35.8803537  49.0200247
 108.4412553  36.0314696  48.8469215 107.0911523  35.9687558  48.1648894
 106.3108825  39.9054201  46.7898785 106.1719910  39.5372986  47.6624723
 105.5223421  40.4201841  46.6182743 106.9056977  45.0063298  38.1324322
 107.0808732  44.5351341  38.9469944 106.2189765  45.6329064  38.3605582
 107.8614040  39.2835804  44.1787623 107.5263872  39.2436574  45.0745273
 107.3617985  38.6180520  43.7058033 101.8358284  34.6903434  49.7040204
 101.6978082  33.9583673  50.3051743 102.7463207  34.6012334  49.4224392
 110.7973231  36.6291838  34.4524683 110.1802402  35.9038666  34.3557735
 110.3289720  37.3901199  34.1091757 104.4640584  34.4023393  49.1923884
 105.1740203  33.7616585  49.1510502 104.4209893  34.6536288  50.1150064
 112.4527363  41.3390747  52.1130463 112.3939909  40.6549967  51.4461046
 112.8546881  42.0809737  51.6611089 103.1769518  31.3888611  51.0119523
 102.6406875  30.9379350  51.6641119 102.5886227  31.5234520  50.2689987
 101.4718062  48.1552660  44.9064182 101.7114660  48.7871185  45.5843200
 100.6287258  47.8040700  45.1929541 102.5871777  30.8477263  33.5745987
 101.7101244  30.7266063  33.2108233 103.0629530  30.0563341  33.3224875
 112.4544770  39.3030331  50.3444443 111.5671549  38.9656252  50.4670841
 113.0243321  38.5713362  50.5813208  94.1073917  35.6354422  43.6687494
  94.7944957  35.3216152  43.0808509  93.9522046  36.5395787  43.3954745
  98.9108640  30.5244619  48.0972518  98.8266828  29.9170288  47.3622928
  98.0891346  31.0153637  48.0982014 105.9845924  43.9631783  47.3105686
 105.9116095  44.7686754  47.8224990 105.5423317  44.1623749  46.4853707
 105.7735703  43.2003553  40.8208507 104.9903225  43.7425233  40.9146732
 106.4728449  43.7177533  41.2202748 109.0832353  29.0098182  43.4642713
 109.5801053  28.2568145  43.1443783 108.3119335  29.0462499  42.8985922
 108.4444607  43.8618617  49.4663844 109.1572579  44.4966082  49.3939746
 107.9534636  43.9582483  48.6503846 110.1662134  37.7669870  41.0381136
 109.2318413  37.8871332  40.8685840 110.3438803  36.8642336  40.7741146
 105.6667322  31.1515565  43.1914397 105.2965110  30.5986606  43.8795303
 106.1626415  30.5473699  42.6389397 113.5534685  33.6087189  41.5731170
 114.0195138  34.4415180  41.4991473 114.0042186  33.1432170  42.2776429
 103.4956521  41.6113060  50.2869415 104.1965980  42.2449543  50.4398809
 103.0251636  41.9527792  49.5265054 111.6210917  39.9531010  38.5717322
 111.8970761  39.8387605  39.4811196 110.7515415  39.5548495  38.5329495
 111.5251348  25.9767776  45.6122072 110.6114428  26.2072003  45.7804278
 111.9544450  26.0606220  46.4636104 111.2957807  34.1657668  48.1121966
 110.6429257  34.4133575  47.4574418 111.6738187  33.3521806  47.7784443
 108.2564981  44.2017361  42.2150136 108.4387375  43.3839017  42.6777888
 109.0797967  44.4185053  41.7775026 108.5907146  43.1285546  39.4765184
 109.1194913  42.6178001  38.8635346 108.8535366  42.8128076  40.3410717
 107.3445380  34.9077479  54.5988003 106.6686017  34.8071608  55.2690378
 108.1673014  34.7516693  55.0624000  99.0924239  41.1449415  47.2200518
  99.6777676  40.3993103  47.3528422  98.8949077  41.4553372  48.1037182
 101.9462894  44.1800663  42.2362960 101.2773269  44.6646790  41.7527000
 101.8075764  44.4269883  43.1506339  93.6841894  33.7155016  45.9404961
  93.7225993  33.1818606  46.7342079  93.1782186  33.1890221  45.3215938
 106.0868163  46.2144406  48.8345619 106.6386471  46.3776028  49.5994704
 106.4274356  46.8048844  48.1625644 101.0632656  28.5619556  49.4367503
 101.1273982  29.4234387  49.0244901 100.9999776  27.9493558  48.7039862
 100.5384928  30.6342689  53.0840538 101.1656967  30.2519766  53.6978062
  99.6812847  30.4156891  53.4496230 110.9379037  41.0405664  54.6894273
 111.4818941  41.6535622  54.1949228 110.3565882  41.5985242  55.2061286
  97.3150471  32.4419118  39.0158892  97.6103912  31.5329796  38.9625946
  96.4138507  32.4206857  38.6939895 109.2236550  44.1626382  45.8209301
 109.0987689  43.3616122  45.3120246 109.8815641  44.6572575  45.3323271
 100.8444718  30.5175114  44.9986441 100.1231304  31.1311082  44.8593914
 101.6337974  31.0532879  44.9203087 111.2871458  41.9635402  47.4488851
 110.3401794  41.8440753  47.3767178 111.6354231  41.0757900  47.5315112
 103.6471032  27.8529541  51.2727093 104.1705433  28.0991837  52.0353402
 103.4283365  28.6849576  50.8530230  99.0438313  30.1233215  39.1398218
  98.7151019  29.2430594  38.9573324  99.3977683  30.0680884  40.0274607
 108.2917892  41.7588118  43.6493203 108.1442854  40.8304826  43.8300773
 109.1171385  41.7808209  43.1650278 102.1580136  30.4106185  39.5073695
 102.4976208  30.9392106  38.7852304 102.6052256  30.7486591  40.2832262
 111.8952013  42.5816677  44.7358076 112.8198561  42.3759538  44.5982527
 111.7267317  42.3333078  45.6447417 104.8523577  28.7943236  48.9576763
 104.5120397  27.9951049  49.3597443 104.1462583  29.0944947  48.3853597
 105.5040049  25.8792548  47.4104086 106.3266118  25.4053027  47.2882977
 105.7478112  26.6583032  47.9102773 104.1448283  28.9080807  37.7066988
 104.8656646  29.2862060  37.2030705 103.5213587  29.6269684  37.8101966
 108.2879406  29.6125956  38.6425320 108.5043020  30.4950594  38.3414149
 107.8073473  29.2212169  37.9130962 103.0278627  32.5711669  45.2196065
 102.8823208  32.8851972  46.1120346 102.5503831  33.1896569  44.6666964
 104.8875010  29.5614217  45.2676955 104.8736579  28.6655310  44.9309252
 105.6047438  29.5684881  45.9015241 106.7401141  29.9951557  47.3130082
 106.4818919  30.9168628  47.3114412 106.2086181  29.5981992  48.0030546
 111.6847330  43.1002344  40.0920167 111.8584207  42.5348767  39.3394020
 112.1776221  43.9003239  39.9099657  97.5024289  35.1117013  48.1583726
  96.9577758  35.8876821  48.2904000  98.3803639  35.4587818  48.0002848
 104.2911906  28.4428597  40.5364525 104.4127817  27.5145243  40.7355412
 104.0013948  28.4567283  39.6242840 107.1603097  26.1283508  43.6731245
 107.1824793  26.1922841  42.7183224 107.5771156  25.2888016  43.8671751
 112.6722502  42.4169109  37.1917066 113.3673407  43.0375801  37.4104380
 113.0145652  41.5664460  37.4669444  98.2890311  34.2386910  51.0513883
  97.5472047  34.3869545  51.6378513  97.9683056  34.4995175  50.1880632
 114.5713925  39.8668814  38.7204396 115.0965249  40.2056087  37.9953716
 114.4836278  38.9315830  38.5367531 106.2333974  43.7802888  50.8494273
 106.5421100  43.5352035  51.7216973 107.0309456  43.9849526  50.3613143
 106.2554586  45.9340798  43.0799650 105.8159576  45.4417176  43.7732506
 107.0062703  45.3913765  42.8391725  98.7346925  42.1252338  43.0824278
  99.5604945  41.8256110  42.7022921  98.3840977  41.3559961  43.5314066
 103.7028458  41.4778807  45.1521951 103.0808467  40.8149512  44.8524179
 104.3733325  41.5039939  44.4695599  96.9355530  40.0438665  44.0413211
  96.0987438  39.6160839  43.8597212  96.9079175  40.2371108  44.9784002
 103.7752986  29.9560595  54.7454457 103.8241141  30.8322717  54.3632227
 104.3175500  29.4137988  54.1726100 114.2607831  40.5001718  54.0255594
 113.4703375  40.4825857  53.4860094 114.0241186  41.0390012  54.7804631
 114.3805706  37.3494184  51.3388323 114.4303711  37.1844192  52.2803846
 114.2719630  36.4821443  50.9486204 103.2641965  40.0282730  38.6280412
 103.4130085  40.7118194  37.9747085 104.0708409  40.0087820  39.1429868
 111.6709469  33.3325112  52.6547630 112.5719332  33.1931577  52.3631627
 111.7457443  33.4979567  53.5945807 106.0052274  30.7091967  51.5000816
 105.1355584  31.0025533  51.2283404 106.2411754  31.2932412  52.2208080
 115.8823903  39.7691126  51.5830344 115.5908712  40.1321106  52.4193805
 115.2696034  39.0558134  51.4043676 114.1311091  34.8923740  50.0510402
 114.6065213  35.0851387  49.2429254 113.2076657  34.9482926  49.8053786
 101.0194598  36.0547908  39.6341481 100.7740640  35.1510238  39.8321691
 101.1890513  36.0565058  38.6920959 108.7091308  26.9271584  49.0166236
 109.2273252  27.6632611  48.6912725 108.3546441  27.2335577  49.8512995
 100.2890246  31.7876265  37.1327642  99.5959491  31.8620620  36.4767678
 100.0441997  31.0236609  37.6549159 108.9603902  23.3471867  44.5367133
 109.2405656  22.6795056  45.1627559 109.7454509  23.5400962  44.0241797
 106.7637371  42.5230860  36.0992159 106.1911338  43.1421048  35.6462631
 107.3370164  43.0730222  36.6332081 112.8312760  31.7689501  48.2838708
 113.7830183  31.8687598  48.3050932 112.6616211  30.9767769  48.7936792
 110.8527140  28.8545084  48.4698109 110.2577072  29.1350096  47.7744598
 110.5676837  29.3438985  49.2414850 109.9834630  42.8068011  37.2300741
 110.9165304  42.7413572  37.4333617 109.8957843  43.6424277  36.7715274
 112.6122647  42.1233881  34.1904689 112.5336279  41.7893744  35.0840447
 113.4332314  42.6155649  34.1896161 107.1484169  33.8591673  33.4408212
 108.0943274  33.7297881  33.5096630 106.7698414  33.1206335  33.9177640
 113.1206054  25.5247679  43.4035104 112.9230875  25.2162767  44.2878435
 113.7305759  26.2509318  43.5333033 107.0322862  37.9109419  54.9008869
 107.9525871  38.0888018  55.0948915 106.9972445  36.9665465  54.7488568
 105.3327086  31.7841650  33.3763097 104.4258542  31.4874762  33.4525811
 105.6103067  31.4871468  32.5097383  96.2505027  33.1048013  43.8262143
  95.9307811  32.2513321  43.5336517  95.7038455  33.3196591  44.5820111
 100.0284934  35.8210454  47.5431650 100.2470944  36.7527562  47.5619684
 100.4410708  35.4618428  48.3286454 106.9489152  26.3278539  39.5307338
 106.1389880  25.9825624  39.9062584 107.6373569  26.0186083  40.1194950
 108.8779700  25.4056586  41.1531635 109.4310739  25.8252040  41.8121658
 109.1149787  24.4792334  41.1954591 104.9012799  31.3943660  56.9334399
 104.8009526  32.3438017  56.8646490 104.6834342  31.0661899  56.0610469
 104.1025871  28.6428585  33.5175076 104.9645035  28.9683483  33.7770893
 104.2876215  27.8560081  33.0048142  96.1193287  36.7250924  45.7955265
  95.4256758  36.3104877  45.2825219  96.8666278  36.7671461  45.1988684
 112.2558507  27.5157111  40.6610299 111.6757176  28.1741915  40.2788352
 111.9894440  26.6934456  40.2497717 110.7062074  26.9162169  42.8631619
 111.2061852  27.0278703  42.0545938 111.3497682  26.6123222  43.5032428
 104.7644070  34.8240799  55.7499460 104.2811151  35.6241159  55.9563349
 104.8505009  34.8348743  54.7966904  98.0330029  36.6569178  43.6721280
  98.0100717  36.7556866  42.7203163  98.3430666  37.5034329  43.9938446
 100.6917407  38.7145333  47.7867894 101.6460661  38.6829276  47.7197826
 100.4929931  38.2535957  48.6018120 101.2816789  37.2846449  50.3538692
 102.1009678  37.7790528  50.3773529 101.5553597  36.3678417  50.3256259
 111.0383385  29.6757202  39.7166647 110.1509240  29.9606852  39.4986842
 111.4537374  29.5150965  38.8693924 114.3897922  29.7003723  43.4320987
 115.1658312  30.1900175  43.7045603 113.6646056  30.1261777  43.8892856
  99.0467636  44.2564953  44.8038092  98.9122104  43.4965354  44.2376090
  98.6299698  44.9805853  44.3366881 110.1826599  39.4401876  33.8114667
 110.8862449  39.6451879  34.4272323 109.4589248  40.0078638  34.0763751
 111.0124409  35.1911738  39.9316938 110.9559611  35.6480289  39.0924570
 111.5652752  34.4302422  39.7539780 114.8229215  30.9801469  40.7567057
 114.5666149  30.5798105  41.5875265 114.1982083  31.6945263  40.6317196
 102.2036762  45.1534270  45.0156535 102.0869146  46.0979702  44.9135225
 101.3829208  44.8507831  45.4042334 112.0913296  39.8784405  35.8613127
 112.9258900  39.4465604  35.6790602 111.9297639  39.7066419  36.7890022
 111.7459188  36.3816519  37.2269467 111.6907992  36.2160790  36.2857911
 111.1205244  37.0892552  37.3831656  96.5351703  31.6184583  51.0530889
  97.1810567  31.1083537  51.5418114  96.3268855  32.3553265  51.6274314
 109.0605096  38.6865431  56.5523030 109.9296255  38.8606083  56.1909664
 108.5811847  39.5059847  56.4298759 105.0555314  25.8824628  36.8054785
 105.0433984  26.8266468  36.9623056 105.9478736  25.6994773  36.5114246
 103.2291276  45.8062532  48.2312463 104.1318523  45.8386142  48.5478958
 103.0028646  44.8762983  48.2458799 104.9844878  44.5593518  44.8922542
 104.0340509  44.5595380  44.7786914 105.2877364  43.8126253  44.3758576
 108.8707433  22.4767404  41.0600722 108.1039829  21.9225891  41.2057404
 109.2818138  22.5489273  41.9214874 100.8749194  28.7652200  55.1505903
 101.7380656  28.4089005  55.3609228 100.3014605  28.4266095  55.8381307
 113.3874093  52.2016961  41.8826720 112.8238958  52.1106898  41.1143008
 113.2726488  51.3816866  42.3629212 110.9338525  53.6968153  44.7210940
 111.7259817  53.3558977  44.3057240 111.1735175  53.8063128  45.6413094
 112.8929279  52.9577066  37.5928319 113.6660155  52.4106053  37.4541195
 113.2454678  53.8221315  37.8042780 114.7314322  54.2853448  50.7995218
 114.4404188  55.1899079  50.6841885 115.3671306  54.3269976  51.5139288
 115.2295557  49.1169732  35.2246769 115.4821078  48.5951253  34.4630232
 114.2920116  48.9535878  35.3273453 114.9491846  51.0197838  37.4271144
 114.8328104  50.3442741  38.0952228 115.0594106  50.5330212  36.6103297
 113.1416688  50.4228661  43.8281716 112.2167185  50.2904875  44.0359408
 113.3901102  51.2022880  44.3251659 110.5025499  50.0661934  44.6625506
 110.6317881  50.3196413  45.5764917 109.8222951  50.6589642  44.3430161
 114.6724987  60.7359184  40.7615980 114.5949016  61.6867009  40.8404460
 114.0686630  60.3905057  41.4190906 113.6624786  52.7048724  45.5349612
 114.2326143  53.1335992  44.8967097 114.2532898  52.4231308  46.2333798
 114.1549952  47.8712151  53.7810624 113.5248613  48.5528432  54.0146020
 114.0486040  47.7595233  52.8363762 109.4494925  47.5383947  44.7076548
 108.6593979  47.7941476  44.2316658 109.9406172  48.3532285  44.8128588
 111.4009670  47.9028526  41.6660025 110.6040834  48.0147221  42.1843520
 111.1735262  48.2415179  40.8000915 107.7332628  47.7914438  47.1391539
 107.9840666  48.6761447  47.4049115 108.2692176  47.6119039  46.3666630
 113.4330695  42.1732917  56.1435875 113.0397641  41.6199115  56.8183519
 114.2496836  42.4843495  56.5342392 110.3992753  53.6116775  40.0549445
 110.9117274  54.4060025  40.2055009 111.0515466  52.9143066  39.9883046
 112.2087638  56.7282531  42.1372198 112.3854266  57.6500496  41.9493182
 113.0044471  56.4140951  42.5666578 111.4939994  48.7747163  52.0134361
 111.3793509  47.8732420  52.3141460 110.6384512  49.0210860  51.6619177
 113.3318953  58.2460705  48.1382540 113.8826378  58.1177769  47.3659534
 112.4930429  58.5455594  47.7877433 108.3641670  51.9405429  40.8309015
 109.2016892  52.3502438  40.6142723 108.5419937  51.0004872  40.8009209
 113.2257564  44.3017492  42.3552195 113.8001316  44.0792673  41.6225388
 113.8128547  44.3706186  43.1080796 113.5527152  46.3321953  36.3748080
 112.7164464  46.6696639  36.6957355 113.4131921  46.1970933  35.4375217
 115.5280232  41.1758741  41.0827264 114.8744645  40.8607758  40.4583879
 115.4860706  40.5534481  41.8087087 108.3867841  49.2796145  41.5019749
 108.1892241  48.6865505  40.7770815 107.8314505  48.9748355  42.2195687
 114.3056924  47.7896311  41.3804721 113.4924790  48.0890481  41.7869913
 114.8015919  47.3952000  42.0979203 113.7970999  45.3614666  46.9965956
 114.4370379  45.2203426  46.2988919 112.9648530  45.0749180  46.6204558
 114.5731303  54.6617097  43.1100948 115.3671902  54.1667417  42.9083523
 113.8622995  54.1334960  42.7468654 110.8814067  48.8060179  39.1860701
 109.9511655  48.7444634  39.4030663 110.9771539  48.2836131  38.3897342
 110.7999616  45.3314991  41.7738942 111.0606433  46.2460325  41.6648103
 111.6216788  44.8639434  41.9235555 112.2724541  46.7452749  48.9437767
 112.9447594  46.5370111  48.2950416 111.4454327  46.5474835  48.5042999
 112.6752038  50.0195352  49.7040204 112.5371836  49.2875590  50.3051743
 113.5856962  49.9304252  49.4224392 114.0163273  46.7180529  51.0119523
 113.4800630  46.2671267  51.6641119 113.4279981  46.8526438  50.2689987
 112.3111816  63.4844578  44.9064182 112.5508415  64.1163102  45.5843200
 111.4681013  63.1332618  45.1929541 113.4265532  46.1769180  33.5745987
 112.5494998  46.0557981  33.2108233 113.9023285  45.3855259  33.3224875
 104.9467672  50.9646340  43.6687494 105.6338712  50.6508070  43.0808509
 104.7915801  51.8687705  43.3954745 109.7502394  45.8536536  48.0972518
 109.6660583  45.2462206  47.3622928 108.9285100  46.3445555  48.0982014
 114.3350275  56.9404978  50.2869415 115.0359735  57.5741461  50.4398809
 113.8645390  57.2819710  49.5265054 109.9317993  56.4741333  47.2200518
 110.5171430  55.7285021  47.3528422 109.7342832  56.7845290  48.1037182
 112.7856649  59.5092580  42.2362960 112.1167024  59.9938708  41.7527000
 112.6469518  59.7561801  43.1506339 104.5235648  49.0446933  45.9404961
 104.5619748  48.5110524  46.7342079 104.0175941  48.5182139  45.3215938
 111.9026410  43.8911474  49.4367503 111.9667737  44.7526305  49.0244901
 111.8393531  43.2785475  48.7039862 111.3778683  45.9634606  53.0840538
 112.0050722  45.5811684  53.6978062 110.5206602  45.7448808  53.4496230
 108.1544226  47.7711035  39.0158892 108.4497667  46.8621714  38.9625946
 107.2532261  47.7498775  38.6939895 111.6838473  45.8467032  44.9986441
 110.9625058  46.4603000  44.8593914 112.4731728  46.3824797  44.9203087
 114.4864786  43.1821459  51.2727093 115.0099188  43.4283755  52.0353402
 114.2677119  44.0141493  50.8530230 109.8832067  45.4525133  39.1398218
 109.5544773  44.5722512  38.9573324 110.2371438  45.3972802  40.0274607
 112.9973890  45.7398103  39.5073695 113.3369963  46.2684024  38.7852304
 113.4446011  46.0778509  40.2832262 115.6917331  44.1235154  48.9576763
 115.3514152  43.3242967  49.3597443 114.9856337  44.4236864  48.3853597
 114.9842038  44.2372724  37.7066988 115.7050400  44.6153977  37.2030705
 114.3607342  44.9561601  37.8101966 113.8672382  47.9003587  45.2196065
 113.7216963  48.2143890  46.1120346 113.3897585  48.5188487  44.6666964
 108.3418044  50.4408931  48.1583726 107.7971512  51.2168739  48.2904000
 109.2197394  50.7879736  48.0002848 115.1305661  43.7720515  40.5364525
 115.2521572  42.8437161  40.7355412 114.8407703  43.7859201  39.6242840
 109.1284066  49.5678827  51.0513883 108.3865802  49.7161463  51.6378513
 108.8076810  49.8287093  50.1880632 109.5740679  57.4544256  43.0824278
 110.3998699  57.1548028  42.7022921 109.2234731  56.6851879  43.5314066
 114.5422213  56.8070724  45.1521951 113.9202222  56.1441429  44.8524179
 115.2127080  56.8331856  44.4695599 107.7749285  55.3730583  44.0413211
 106.9381193  54.9452757  43.8597212 107.7472930  55.5663026  44.9784002
 114.6146740  45.2852512  54.7454457 114.6634896  46.1614635  54.3632227
 115.1569254  44.7429905  54.1726100 114.1035720  55.3574648  38.6280412
 114.2523840  56.0410112  37.9747085 114.9102163  55.3379738  39.1429868
 111.8588353  51.3839825  39.6341481 111.6134394  50.4802155  39.8321691
 112.0284267  51.3856976  38.6920959 111.1284000  47.1168183  37.1327642
 110.4353245  47.1912538  36.4767678 110.8835752  46.3528526  37.6549159
 107.0898781  48.4339931  43.8262143 106.7701565  47.5805239  43.5336517
 106.5432209  48.6488509  44.5820111 110.8678689  51.1502372  47.5431650
 111.0864698  52.0819479  47.5619684 111.2804462  50.7910346  48.3286454
 115.7406554  46.7235577  56.9334399 115.6403281  47.6729934  56.8646490
 115.5228096  46.3953816  56.0610469 114.9419625  43.9720502  33.5175076
 115.8038789  44.2975401  33.7770893 115.1269970  43.1851998  33.0048142
 106.9587041  52.0542842  45.7955265 106.2650513  51.6396795  45.2825219
 107.7060032  52.0963379  45.1988684 115.6037824  50.1532716  55.7499460
 115.1204906  50.9533076  55.9563349 115.6898763  50.1640661  54.7966904
 108.8723784  51.9861096  43.6721280 108.8494472  52.0848783  42.7203163
 109.1824420  52.8326247  43.9938446 111.5311162  54.0437251  47.7867894
 112.4854415  54.0121193  47.7197826 111.3323685  53.5827875  48.6018120
 112.1210544  52.6138367  50.3538692 112.9403433  53.1082446  50.3773529
 112.3947351  51.6970335  50.3256259 109.8861390  59.5856870  44.8038092
 109.7515858  58.8257271  44.2376090 109.4693453  60.3097770  44.3366881
 113.0430516  60.4826187  45.0156535 112.9262900  61.4271620  44.9135225
 112.2222962  60.1799749  45.4042334 107.3745458  46.9476501  51.0530889
 108.0204322  46.4375455  51.5418114 107.1662609  47.6845182  51.6274314
 114.0685030  61.1354449  48.2312463 114.9712277  61.1678060  48.5478958
 113.8422400  60.2054900  48.2458799 111.7142949  44.0944118  55.1505903
 112.5774410  43.7380923  55.3609228 111.1408360  43.7558013  55.8381307
 115.3629403  64.3738851  45.9404961 115.4013502  63.8402442  46.7342079
 114.8569695  63.8474056  45.3215938  90.6324309   9.8322865  31.6309488
  90.8720907  10.4641390  32.3088507  89.7893505   9.4810905  31.9174848
 102.5480340  13.8787166  28.6072026 101.9845205  13.7877103  27.8388314
 102.4332735  13.0587070  29.0874519 100.0944772  15.3738358  31.4456247
 100.8866064  15.0329182  31.0302546 100.3341422  15.4833333  32.3658400
 103.8920569  15.9623653  37.5240525 103.6010434  16.8669284  37.4087191
 104.5277553  16.0040181  38.2384595 108.8510454  15.6485069  34.5190319
 108.5511177  16.5510107  34.4106126 108.5061513  15.3817252  35.3711472
  99.6631746  11.7432139  31.3870812  99.7924127  11.9966618  32.3010224
  98.9829197  12.3359847  31.0675467 103.8331233  22.4129389  27.4861286
 103.7555263  23.3637214  27.5649767 103.2292877  22.0675262  28.1436213
 105.9306952  14.8347447  29.3215156 106.3945297  15.1135150  28.5319778
 105.6663750  13.9330892  29.1388246 102.8231033  14.3818929  32.2594919
 103.3932390  14.8106197  31.6212404 103.4139145  14.1001513  32.9579105
 106.3921585  16.1043434  36.3387846 106.4566017  16.5663842  37.1746018
 105.6832509  15.4740799  36.4670156  99.5599000  15.2886980  26.7794751
 100.0723520  16.0830230  26.9300316 100.2121713  14.5913270  26.7128353
 101.3693884  18.4052736  28.8617504 101.5460513  19.3270701  28.6738488
 102.1650718  18.0911156  29.2911884 107.7338079  18.3935108  40.3367168
 107.2901933  17.6071487  40.0188073 108.3955292  18.5814259  39.6711059
 102.4925200  19.9230910  34.8627847 103.0432625  19.7947973  34.0904841
 101.6536676  20.2225799  34.5122740 109.8319317  18.6737908  38.3648569
 109.8137792  19.4946789  37.8728839 110.7539237  18.5491984  38.5898711
 106.2892371  16.1882038  39.2072078 106.8220708  15.4270326  38.9771386
 105.7606452  15.8955690  39.9496232  97.5247916  13.6175634  27.5554322
  98.3623138  14.0272643  27.3388029  97.7026184  12.6775076  27.5254516
 105.6171749  19.4624273  30.0384292 105.5747928  19.6885119  29.1092824
 106.5334448  19.2287647  30.1870093 103.7337550  16.3387302  29.8346255
 104.5278148  15.8437622  29.6328830 103.0229242  15.8105165  29.4713960
 108.5532394  18.7205397  34.1858622 108.6069417  19.2896334  34.9536338
 107.6847176  18.8907282  33.8212659 106.3108826  16.9116324  33.5144092
 106.1719912  16.5435108  34.3870030 105.5223422  17.4263963  33.3428050
 106.9056978  22.0125420  24.8569628 107.0808734  21.5413463  25.6715251
 106.2189766  22.6391186  25.0850889 107.8614041  16.2897926  30.9032929
 107.5263874  16.2498696  31.7990579 107.3617987  15.6242642  30.4303340
 112.4527364  18.3452869  38.8375770 112.3939910  17.6612089  38.1706353
 112.8546883  19.0871859  38.3856396 101.4718063  25.1614783  31.6309488
 101.7114661  25.7933307  32.3088507 100.6287260  24.8102823  31.9174848
  94.1073919  12.6416545  30.3932801  94.7944959  12.3278275  29.8053816
  93.9522047  13.5457909  30.1200052 105.9845925  20.9693905  34.0350992
 105.9116096  21.7748877  34.5470297 105.5423318  21.1685871  33.2099014
 105.7735705  20.2065675  27.5453814 104.9903226  20.7487356  27.6392038
 106.4728450  20.7239655  27.9448055 108.4444609  20.8680739  36.1909151
 109.1572581  21.5028204  36.1185053 107.9534637  20.9644605  35.3749153
 103.4956522  18.6175183  37.0114722 104.1965982  19.2511666  37.1644116
 103.0251637  18.9589914  36.2510361 108.2564982  21.2079484  28.9395443
 108.4387376  20.3901140  29.4023195 109.0797968  21.4247176  28.5020333
  99.0924240  18.1511538  33.9445825  99.6777677  17.4055226  34.0773729
  98.8949079  18.4615495  34.8282488 101.9462895  21.1862785  28.9608267
 101.2773271  21.6708913  28.4772307 101.8075765  21.4332006  29.8751645
  93.6841895  10.7217138  32.6650268  93.7225994  10.1880729  33.4587386
  93.1782188  10.1952344  32.0461245 106.0868164  23.2206529  35.5590925
 106.6386472  23.3838150  36.3240011 106.4274357  23.8110967  34.8870950
 110.9379038  18.0467786  41.4139580 111.4818942  18.6597745  40.9194535
 110.3565883  18.6047365  41.9306593 109.2236551  21.1688504  32.5454607
 109.0987691  20.3678244  32.0365553 109.8815642  21.6634698  32.0568577
 111.2871460  18.9697525  34.1734158 110.3401795  18.8502876  34.1012484
 111.6354233  18.0820023  34.2560419 108.2917893  18.7650241  30.3738510
 108.1442855  17.8366948  30.5546080 109.1171386  18.7870331  29.8895585
 111.8952015  19.5878799  31.4603383 112.8198562  19.3821661  31.3227834
 111.7267318  19.3395201  32.3692724  97.5024291  12.1179136  34.8829033
  96.9577759  12.8938944  35.0149307  98.3803641  12.4649940  34.7248154
  98.2890313  11.2449032  37.7759190  97.5472049  11.3931668  38.3623820
  97.9683057  11.5057298  36.9125939 106.2333975  20.7865011  37.5739580
 106.5421102  20.5414157  38.4462279 107.0309457  20.9911649  37.0858450
 106.2554587  22.9402920  29.8044956 105.8159578  22.4479299  30.4977813
 107.0062704  22.3975888  29.5637031  98.7346926  19.1314461  29.8069584
  99.5604946  18.8318233  29.4268228  98.3840978  18.3622083  30.2559373
 103.7028459  18.4840929  31.8767258 103.0808469  17.8211634  31.5769486
 104.3733326  18.5102061  31.1940906  96.9355531  17.0500787  30.7658518
  96.0987440  16.6222962  30.5842519  96.9079177  17.2433231  31.7029309
 114.2607833  17.5063841  40.7500901 113.4703376  17.4887979  40.2105400
 114.0241187  18.0452134  41.5049938 103.2641966  17.0344853  25.3525718
 103.4130087  17.7180317  24.6992391 104.0708410  17.0149943  25.8675174
 101.0194599  13.0610030  26.3586787 100.7740641  12.1572360  26.5566997
 101.1890514  13.0627181  25.4166265 100.0284935  12.8272577  34.2676957
 100.2470945  13.7589684  34.2864990 100.4410709  12.4680551  35.0531760
  96.1193288  13.7313047  32.5200572  95.4256759  13.3167000  32.0070526
  96.8666279  13.7733584  31.9233990  98.0330030  13.6631301  30.3966586
  98.0100719  13.7618988  29.4448470  98.3430667  14.5096452  30.7183753
 100.6917408  15.7207456  34.5113201 101.6460662  15.6891398  34.4443132
 100.4929932  15.2598080  35.3263427 101.2816790  14.2908572  37.0783999
 102.1009679  14.7852651  37.1018836 101.5553598  13.3740540  37.0501566
  99.0467637  21.2627075  31.5283399  98.9122105  20.5027476  30.9621397
  98.6299699  21.9867975  31.0612188 102.2036763  22.1596392  31.7401841
 102.0869147  23.1041825  31.6380532 101.3829209  21.8569954  32.1287641
 109.0605097  15.6927553  43.2768336 109.9296256  15.8668206  42.9154971
 108.5811848  16.5121970  43.1544066 103.2291277  22.8124654  34.9557770
 104.1318524  22.8448265  35.2724265 103.0028647  21.8825105  34.9704106
 104.9844879  21.5655641  31.6167848 104.0340510  21.5657502  31.5032221
 105.2877365  20.8188375  31.1003883 113.3874095  29.2079084  28.6072026
 112.8238960  29.1169021  27.8388314 113.2726490  28.3878988  29.0874519
 110.9338527  30.7030275  31.4456247 111.7259818  30.3621100  31.0302546
 111.1735177  30.8125250  32.3658400 114.7314323  31.2915571  37.5240525
 114.4404189  32.1961202  37.4087191 115.3671307  31.3332098  38.2384595
 113.1416690  27.4290783  30.5527023 112.2167186  27.2966997  30.7604715
 113.3901103  28.2085002  31.0496966 110.5025501  27.0724057  31.3870812
 110.6317882  27.3258536  32.3010224 109.8222952  27.6651765  31.0675467
 114.6724988  37.7421307  27.4861286 114.5949018  38.6929132  27.5649767
 114.0686631  37.3967179  28.1436213 113.6624787  29.7110846  32.2594919
 114.2326144  30.1398115  31.6212404 114.2532899  29.4293431  32.9579105
 114.1549954  24.8774274  40.5055930 113.5248614  25.5590555  40.7391327
 114.0486042  24.7657355  39.5609069 109.4494926  24.5446070  31.4321854
 108.6593980  24.8003598  30.9561965 109.9406174  25.3594408  31.5373895
 111.4009672  24.9090649  28.3905331 110.6040835  25.0209343  28.9088827
 111.1735264  25.2477301  27.5246222 107.7332629  24.7976560  33.8636845
 107.9840668  25.6823570  34.1294421 108.2692178  24.6181162  33.0911937
 113.4330696  19.1795040  42.8681181 113.0397642  18.6261238  43.5428826
 114.2496837  19.4905618  43.2587699 110.3992754  30.6178898  26.7794751
 110.9117275  31.4122148  26.9300316 111.0515467  29.9205188  26.7128353
 112.2087639  33.7344654  28.8617504 112.3854267  34.6562619  28.6738488
 113.0044472  33.4203073  29.2911884 111.4939995  25.7809286  38.7379668
 111.3793511  24.8794543  39.0386767 110.6384513  26.0272983  38.3864484
 113.3318954  35.2522828  34.8627847 113.8826379  35.1239891  34.0904841
 112.4930430  35.5517717  34.5122740 108.3641671  28.9467552  27.5554322
 109.2016893  29.3564560  27.3388029 108.5419939  28.0066994  27.5254516
 108.3867842  26.2858267  28.2265055 108.1892242  25.6927628  27.5016122
 107.8314506  25.9810477  28.9440994 113.7971000  22.3676789  33.7211262
 114.4370380  22.2265548  33.0234225 112.9648531  22.0811302  33.3449864
 114.5731304  31.6679219  29.8346255 115.3671903  31.1729540  29.6328830
 113.8622997  31.1397083  29.4713960 110.7999617  22.3377114  28.4984249
 111.0606434  23.2522447  28.3893409 111.6216789  21.8701557  28.6480862
 112.2724542  23.7514871  35.6683073 112.9447596  23.5432233  35.0195722
 111.4454329  23.5536957  35.2288306 112.6752039  27.0257474  36.4285511
 112.5371837  26.2937713  37.0297050 113.5856963  26.9366374  36.1469698
 114.0163274  23.7242651  37.7364830 113.4800631  23.2733390  38.3886426
 113.4279983  23.8588560  36.9935294 112.3111818  40.4906701  31.6309488
 112.5508416  41.1225225  32.3088507 111.4681014  40.1394741  31.9174848
 104.9467673  27.9708463  30.3932801 105.6338713  27.6570193  29.8053816
 104.7915802  28.8749827  30.1200052 109.7502395  22.8598659  34.8217824
 109.6660584  22.2524329  34.0868234 108.9285102  23.3507677  34.8227321
 114.3350277  33.9467101  37.0114722 115.0359736  34.5803584  37.1644116
 113.8645392  34.2881832  36.2510361 109.9317995  33.4803456  33.9445825
 110.5171431  32.7347144  34.0773729 109.7342833  33.7907412  34.8282488
 112.7856650  36.5154703  28.9608267 112.1167025  37.0000831  28.4772307
 112.6469520  36.7623924  29.8751645 104.5235649  26.0509056  32.6650268
 104.5619749  25.5172647  33.4587386 104.0175942  25.5244261  32.0461245
 111.9026412  20.8973596  36.1612810 111.9667738  21.7588427  35.7490208
 111.8393532  20.2847598  35.4285169 111.3778684  22.9696729  39.8085844
 112.0050723  22.5873806  40.4223369 110.5206603  22.7510931  40.1741537
 108.1544227  24.7773158  25.7404199 108.4497668  23.8683836  25.6871253
 107.2532263  24.7560897  25.4185201 111.6838474  22.8529155  31.7231748
 110.9625060  23.4665122  31.5839221 112.4731730  23.3886919  31.6448394
 114.4864787  20.1883581  37.9972399 115.0099189  20.4345878  38.7598709
 114.2677121  21.0203616  37.5775537 115.6917332  21.1297276  35.6822070
 115.3514153  20.3305089  36.0842750 114.9856339  21.4298987  35.1098903
 113.8672383  24.9065709  31.9441372 113.7216964  25.2206012  32.8365653
 113.3897587  25.5250610  31.3912270 108.3418045  27.4471054  34.8829033
 107.7971513  28.2230862  35.0149307 109.2197395  27.7941858  34.7248154
 109.1284067  26.5740950  37.7759190 108.3865803  26.7223585  38.3623820
 108.8076811  26.8349216  36.9125939 109.5740681  34.4606379  29.8069584
 110.3998701  34.1610151  29.4268228 109.2234733  33.6914001  30.2559373
 114.5422214  33.8132847  31.8767258 113.9202223  33.1503552  31.5769486
 115.2127081  33.8393979  31.1940906 107.7749286  32.3792705  30.7658518
 106.9381194  31.9514879  30.5842519 107.7472931  32.5725148  31.7029309
 114.6146741  22.2914635  41.4699764 114.6634897  23.1676758  41.0877534
 115.1569256  21.7492028  40.8971407 114.1035721  32.3636770  25.3525718
 114.2523841  33.0472235  24.6992391 114.9102164  32.3441860  25.8675174
 111.8588354  28.3901948  26.3586787 111.6134396  27.4864278  26.5566997
 112.0284268  28.3919098  25.4166265 107.0898782  25.4402053  30.5507450
 106.7701567  24.5867361  30.2581824 106.5432211  25.6550631  31.3065417
 110.8678690  28.1564494  34.2676957 111.0864700  29.0881602  34.2864990
 111.2804464  27.7972469  35.0531760 115.7406555  23.7297700  43.6579705
 115.6403282  24.6792057  43.5891797 115.5228097  23.4015939  42.7855776
 106.9587042  29.0604965  32.5200572 106.2650514  28.6458918  32.0070526
 107.7060033  29.1025501  31.9233990 115.6037825  27.1594839  42.4744767
 115.1204907  27.9595199  42.6808656 115.6898764  27.1702784  41.5212211
 108.8723785  28.9923219  30.3966586 108.8494473  29.0910906  29.4448470
 109.1824421  29.8388369  30.7183753 111.5311163  31.0499374  34.5113201
 112.4854416  31.0183316  34.4443132 111.3323686  30.5889997  35.3263427
 112.1210545  29.6200490  37.0783999 112.9403434  30.1144568  37.1018836
 112.3947353  28.7032458  37.0501566 109.8861392  36.5918993  31.5283399
 109.7515860  35.8319394  30.9621397 109.4693454  37.3159893  31.0612188
 113.0430517  37.4888310  31.7401841 112.9262902  38.4333743  31.6380532
 112.2222964  37.1861872  32.1287641 107.3745459  23.9538623  37.7776196
 108.0204323  23.4437577  38.2663421 107.1662610  24.6907305  38.3519621
 114.0685032  38.1416572  34.9557770 114.9712278  38.1740182  35.2724265
 113.8422402  37.2117023  34.9704106 111.7142950  21.1006241  41.8751210
 112.5774412  20.7443045  42.0854534 111.1408361  20.7620135  42.5626614
 115.3629404  41.3800974  32.6650268 115.4013503  40.8464564  33.4587386
 114.8569697  40.8536179  32.0461245   4.2185096  49.7879844 100.5678153
   4.1398727  49.4539708 101.4613911   5.0394763  50.2801612 100.5669625
  10.5736101  63.5333892 103.5714648   9.9224081  64.1187973 103.1848662
  11.3680464  64.0640087 103.6309686   4.4991728  60.6223029 103.9701783
   5.2722604  60.0752016 103.8314659   4.8517127  61.4867279 104.1816244
   6.8358006  56.7815695 101.6020233   7.0883526  56.2597217 100.8403696
   5.8982565  56.6181841 101.7046916  12.0511366  61.2224324 104.1083633
  11.4157199  61.2958951 104.8204537  11.7208772  61.8117923 103.4302712
   6.5554295  58.6843801 103.8044608   6.4390553  58.0088705 104.4725692
   6.6656554  58.1976175 102.9876761   8.5391322  53.1743848 102.5052645
   8.7065725  54.0424085 102.8723116   8.3488492  53.3371130 101.5813935
   8.5180543  55.6301506 103.4899312   8.3980169  56.0758556 104.3284793
   7.8233132  55.9786823 102.9312850  14.2165609  56.1022979 104.3179646
  15.1283466  56.3350366 104.1427344  13.7075257  56.6860023 103.7554725
  16.7024424  62.0203235 109.0637592  16.0175462  62.4002136 108.5134625
  16.7868273  62.6298562 109.7969539   8.3763154  60.8223205 108.9743313
   8.8401499  61.1010908 108.1847935   8.1119952  59.9206650 108.7916404
   7.3132040  56.9446358 105.7832878   8.0156083  57.3967401 106.2506804
   6.9812668  56.3030177 106.4112771  23.1627176  58.8873898 110.1840264
  22.4090885  58.3181296 110.0284268  23.2974718  58.8536563 111.1310899
   8.5525804  63.7587300 105.8594983   8.4171479  64.6038836 106.2879831
   9.0935617  63.9606578 105.0960917  11.8668551  57.2726473 102.8966312
  11.3515174  58.0431078 103.1354699  11.5945859  56.5991609 103.5199373
  16.8402825  60.0258828 104.8319485  16.0632268  59.6869987 104.3874647
  17.5194306  60.0311451 104.1574450  11.6554854  55.1453565 104.7226093
  11.3504989  55.4599715 105.5736236  12.6085296  55.2234985 104.7653426
  10.1001286  61.3043789 106.3719047   9.5722647  60.5696548 106.0592284
   9.5988788  62.0818465 106.1259015  15.0794132  59.4992809 111.4886093
  14.4217806  60.1892071 111.5766222  15.8834531  59.8889241 111.8320080
  13.8899590  57.8537182 109.5390035  14.4031472  58.4867174 110.0411745
  14.5400814  57.2538377 109.1733395   5.1589600  53.9967916 102.7521544
   4.3226913  54.3342603 103.0730818   5.0194370  53.8616896 101.8148681
   8.2453886  59.1223999  99.3754020   7.3380948  58.8913252  99.5745169
   8.7424918  58.3261618  99.5628002  11.1521965  67.8321506 102.2950706
  10.4783663  68.1353203 102.9035664  11.5387787  68.6350587 101.9456163
  11.1515469  56.7278053 106.9151056  11.8987288  57.2399450 106.6058178
  11.4207059  56.4062106 107.7755449   9.4242119  59.2236594 103.8978010
   8.5153339  58.9395627 103.9950480   9.4537203  59.6435672 103.0381317
  14.6561387  62.8343183 107.6669178  14.2023714  61.9934093 107.7234368
  14.0255353  63.4704582 108.0043958  13.0994326  64.6719680 108.6018996
  13.3917300  65.2324737 107.8831361  13.6092947  64.9648241 109.3572155
   9.1218207  60.7645338 101.2366089   8.6837637  60.0481196 100.7771726
   9.8628648  60.9921452 100.6751180  17.2391322  59.0402535 107.2942407
  17.1009220  59.2304131 106.3663596  16.8827541  59.8021917 107.7510458
  17.2660701  61.1079062 112.3053679  17.6997208  61.0154351 113.1536733
  17.9792282  61.0836562 111.6673695   9.3513180  68.0001179 104.5097785
   9.5264936  67.5289222 105.3243408   8.6645968  68.6266945 104.7379046
  13.2429435  59.6229719 100.8298146  12.6258605  58.8976547 100.7331199
  12.7745923  60.3839079 100.4865221   5.0327981  53.8415143  99.9519451
   4.1557447  53.7203944  99.5881697   5.5085734  53.0501222  99.6998339
  19.3818314  57.7076429 111.4834468  19.3708190  58.5901144 111.1128401
  18.5135694  57.3547980 111.2889005  12.6118337  60.7607751 107.4154600
  11.6774616  60.8809213 107.2459304  12.7895006  59.8580217 107.1514610
  15.9990889  56.6025070 107.9504634  16.4651341  57.4353061 107.8764937
  16.4498389  56.1370051 108.6549892  14.0667120  62.9468891 104.9490786
  14.3426964  62.8325486 105.8584660  13.1971619  62.5486376 104.9102959
  11.0363349  66.1223427 105.8538648  11.5651116  65.6115882 105.2408810
  11.2991569  65.8065957 106.7184181  14.3408217  65.5754558 111.1131540
  15.2654764  65.3697419 110.9755991  14.1723520  65.3270959 112.0220881
  10.7335609  52.6063837 105.0198784  10.9499224  53.4888475 104.7187612
  10.2529676  52.2150050 104.2904426  14.1303533  66.0940225 106.4693631
  14.3040410  65.5286648 105.7167484  14.6232424  66.8941120 106.2873121
  19.9842924  58.8576648 108.0883931  20.4274070  58.1083973 107.6903054
  19.1069434  58.8486785 107.7057663  15.1178705  65.4106990 103.5690529
  15.8129610  66.0313682 103.7877844  15.4601856  64.5602341 103.8442907
  17.0170129  62.8606695 105.0977860  17.5421453  63.1993968 104.3727180
  16.9292481  61.9253711 104.9140995   5.7098168  63.0220611 105.0053876
   5.8586289  63.7056075 104.3520548   6.5164612  63.0025701 105.5203331
  19.5275789  60.3281887 110.4806378  20.3622680  60.7671691 110.6443939
  19.6634918  59.8520540 109.6614624   9.2093574  65.5168741 102.4765623
   8.6367541  66.1358929 102.0236095   9.7826368  66.0668103 103.0105545
  12.4290834  65.8005892 103.6074205  13.3621507  65.7351453 103.8107081
  12.3414047  66.6362158 103.1488738  15.0578850  65.1171762 100.5678153
  14.9792482  64.7831625 101.4613911  15.8788517  65.6093530 100.5669625
   9.5940372  56.8529554  99.8181675  10.5399477  56.7235762  99.8870093
   9.2154617  56.1144216 100.2951104  23.5733591  59.0449508 112.9160508
  24.3036980  58.7834796 113.4768212  22.9640537  58.3078230 112.9562576
   7.7783290  54.7779531  99.7536561   6.8714745  54.4812643  99.8299274
   8.0559271  54.4809349  98.8870847   6.5482074  51.6366466  99.8948540
   7.4101238  51.9621364 100.1544357   6.7332418  50.8497962  99.3821606
  13.4839589  52.6695083 106.0940111  12.5965444  52.9544733 105.8760306
  13.8993578  52.5088846 105.2467388  12.6282802  62.4339757 100.1888131
  13.3318652  62.6389760 100.8045787  11.9045451  63.0016519 100.4537215
  13.4580612  58.1849619 106.3090401  13.4015814  58.6418170 105.4698034
  14.0108955  57.4240303 106.1313244  17.2685418  53.9739350 107.1340521
  17.0122353  53.5735986 107.9648728  16.6438286  54.6883144 107.0090660
  21.5797756  56.7135424 109.6411812  21.0197314  56.7828613 110.4143374
  20.9741260  56.5376408 108.9211308  14.5369500  62.8722286 102.2386591
  15.3715103  62.4403485 102.0564066  14.3753842  62.7004300 103.1663486
  14.1915392  59.3754400 103.6042930  14.1364196  59.2098671 102.6631375
  13.5661447  60.0830433 103.7605120  23.1653775  73.3891938 112.3341768
  23.8032185  73.2698685 111.6305108  23.0474618  74.3372782 112.3929720
  19.9743481  73.3419366 112.2703293  19.6361992  73.2260430 111.3823827
  20.8433249  72.9410531 112.2504299  21.4129855  78.8625810 103.5714648
  20.7617835  79.4479890 103.1848662  22.2074218  79.3932005 103.6309686
  15.3385482  75.9514947 103.9701783  16.1116358  75.4043934 103.8314659
  15.6910881  76.8159196 104.1816244  17.6751760  72.1107613 101.6020233
  17.9277281  71.5889134 100.8403696  16.7376319  71.9473758 101.7046916
  22.7195043  71.1143391 109.4094976  23.5058132  70.6962815 109.0585393
  22.9833747  72.0189484 109.5776624  22.8905120  76.5516242 104.1083633
  22.2550953  76.6250868 104.8204537  22.5602527  77.1409841 103.4302712
  28.1203470  71.0518625 110.3127954  28.8528642  70.4817841 110.5465784
  27.3642826  70.6640225 110.7534460  17.3948049  74.0135719 103.8044608
  17.2784307  73.3380622 104.4725692  17.5050309  73.5268093 102.9876761
  19.7379590  73.4745866 107.5091297  19.3737797  72.9476487 108.2204218
  20.5946706  73.0844335 107.3357782  25.6428891  64.7640199 114.7722563
  25.3112215  65.6335610 114.5483778  25.0474504  64.4476483 115.4516593
  19.3785077  68.5035766 102.5052645  19.5459479  69.3716002 102.8723116
  19.1882246  68.6663048 101.5813935  25.5357554  69.4835285 111.8515913
  24.6274431  69.4150693 111.5574674  25.4845150  69.9607230 112.6797739
  19.3574298  70.9593423 103.4899312  19.2373923  71.4050474 104.3284793
  18.6626886  71.3078741 102.9312850  27.4019200  67.6851723 113.6293787
  26.7593581  67.9784256 112.9833582  26.8974129  67.5704644 114.4346984
  25.0559364  71.4314896 104.3179646  25.9677220  71.6642283 104.1427344
  24.5469011  72.0151941 103.7554725  23.6628946  76.4140715 111.7093228
  23.0337809  76.5786429 111.0069296  23.2754608  76.8282324 112.4804192
  27.5418178  77.3495153 109.0637592  26.8569216  77.7294054 108.5134625
  27.6262028  77.9590479 109.7969539  22.3995339  67.6072932 112.5669507
  21.5379818  67.9054186 112.8586245  22.4257773  67.8243331 111.6350540
  19.2156908  76.1515123 108.9743313  19.6795254  76.4302826 108.1847935
  18.9513706  75.2498568 108.7916404  18.1525794  72.2738275 105.7832878
  18.8549838  72.7259319 106.2506804  17.8206423  71.6322094 106.4112771
  34.0020931  74.2165816 110.1840264  33.2484639  73.6473214 110.0284268
  34.1368472  74.1828480 111.1310899  19.3919559  79.0879218 105.8594983
  19.2565234  79.9330754 106.2879831  19.9329371  79.2898496 105.0960917
  22.7412022  62.6109780 114.3893877  22.3976292  63.5011422 114.3132987
  23.1090985  62.4211438 113.5263462  22.7062305  72.6018391 102.8966312
  22.1908929  73.3722996 103.1354699  22.4339614  71.9283527 103.5199373
  20.2909416  67.4468092 107.9551550  19.4351013  67.0574942 107.7757189
  20.7036368  67.5260053 107.0951336  21.8208563  64.9814435 112.3543110
  21.3173358  64.9444570 111.5410915  22.1139170  65.8907178 112.4139767
  18.0651449  65.0653165 111.3609292  18.9304445  64.8695973 111.0015181
  18.1328958  64.8363517 112.2878648  27.6796579  75.3550746 104.8319485
  26.9026022  75.0161905 104.3874647  28.3588060  75.3603369 104.1574450
  22.4948608  70.4745483 104.7226093  22.1898744  70.7891632 105.5736236
  23.4479050  70.5526903 104.7653426  20.9395040  76.6335706 106.3719047
  20.4116402  75.8988466 106.0592284  20.4382543  77.4110383 106.1259015
  25.9187886  74.8284727 111.4886093  25.2611561  75.5183988 111.5766222
  26.7228285  75.2181159 111.8320080  15.6713768  67.2955373 108.7325658
  16.2457520  67.0730554 107.9998851  16.2584750  67.3644067 109.4854260
  24.7293345  73.1829100 109.5390035  25.2425227  73.8159091 110.0411745
  25.3794569  72.5830295 109.1733395  15.9983355  69.3259834 102.7521544
  15.1620667  69.6634520 103.0730818  15.8588125  69.1908814 101.8148681
  17.9736435  64.1696622 107.4600728  17.3200848  63.8545639 106.8357343
  17.9316910  63.5472362 108.1860551  19.0847640  74.4515917  99.3754020
  18.1774702  74.2205170  99.5745169  19.5818672  73.6553536  99.5628002
  21.9915719  83.1613424 102.2950706  21.3177418  83.4645121 102.9035664
  22.3781541  83.9642504 101.9456163  21.2074176  70.6578555 111.7848376
  20.2896737  70.8793502 111.6270064  21.6234319  70.7324866 110.9260083
  21.9909224  72.0569971 106.9151056  22.7381043  72.5691368 106.6058178
  22.2600813  71.7354024 107.7755449  20.2635874  74.5528512 103.8978010
  19.3547093  74.2687544 103.9950480  20.2930958  74.9727590 103.0381317
  25.4955141  78.1635101 107.6669178  25.0417468  77.3226011 107.7234368
  24.8649108  78.7996499 108.0043958  24.4388061  69.0927087 108.8969845
  23.7010818  68.5804473 109.2280088  24.6914834  68.6527469 108.0853122
  23.9388080  80.0011598 108.6018996  24.2311055  80.5616655 107.8831361
  24.4486701  80.2940159 109.3572155  24.5399688  61.8703339 109.4911614
  24.8458565  61.0100703 109.2037529  25.2652293  62.4620959 109.2910608
  18.8120768  72.1657132 109.9987805  18.8669378  71.2130969 109.9230282
  18.0011970  72.3216571 110.4829104  19.9611962  76.0937255 101.2366089
  19.5231392  75.3773114 100.7771726  20.7022402  76.3213370 100.6751180
  16.7513128  70.7834192 107.7578184  15.9380993  71.0828362 108.1643376
  17.2472122  70.3889881 108.4752667  28.0785076  74.3694452 107.2942407
  27.9402975  74.5596048 106.3663596  27.7221295  75.1313835 107.7510458
  28.1054456  76.4370979 112.3053679  28.5390963  76.3446268 113.1536733
  28.8186037  76.4128480 111.6673695  13.3270270  71.7998060 105.5634164
  12.3967858  71.7382515 105.7804127  13.4227742  71.2774012 104.7670806
  13.2455819  68.3252872 108.1512406  13.5062636  69.2398206 108.0421567
  14.0672991  67.8577315 108.3009019  28.9670006  76.4794680 114.8386564
  29.1605896  77.3840490 115.0845839  28.8670624  76.0202099 115.6725149
  20.1906934  83.3293096 104.5097785  20.3658690  82.8581139 105.3243408
  19.5039722  83.9558862 104.7379046  24.0823189  74.9521637 100.8298146
  23.4652360  74.2268465 100.7331199  23.6139678  75.7130997 100.4865221
  15.8721735  69.1707061  99.9519451  14.9951201  69.0495862  99.5881697
  16.3479488  68.3793139  99.6998339  22.3682311  67.3327981 109.8416176
  22.8651011  66.5797943 109.5217247  21.5969293  67.3692298 109.2759386
  30.2212069  73.0368347 111.4834468  30.2101945  73.9193062 111.1128401
  29.3529448  72.6839897 111.2889005  23.4512092  76.0899668 107.4154600
  22.5168371  76.2101131 107.2459304  23.6288760  75.1872135 107.1514610
  18.9517280  69.4745364 109.5687861  18.5815068  68.9216404 110.2568767
  19.4476372  68.8703497 109.0162861  26.8384643  71.9316987 107.9504634
  27.3045095  72.7644979 107.8764937  27.2892144  71.4661969 108.6549892
  24.9060874  78.2760809 104.9490786  25.1820718  78.1617403 105.8584660
  24.0365373  77.8778294 104.9102959  24.8101306  64.2997574 111.9895535
  23.8964386  64.5301801 112.1577742  25.2394408  64.3836019 112.8409568
  24.5807765  72.4887466 114.4895429  23.9279215  72.7363374 113.8347882
  24.9588144  71.6751605 114.1557907  21.8757104  81.4515345 105.8538648
  22.4044870  80.9407799 105.2408810  22.1385323  81.1357875 106.7184181
  10.6000429  70.7648916 105.3932356  10.8953870  69.8559595 105.3399410
   9.6988465  70.7436656 105.0713359  12.3288271  68.4463014 105.5171681
  12.0000977  67.5660393 105.3346787  12.6827641  68.3910683 106.4048071
  15.4430094  68.7335984 105.8847159  15.7826166  69.2621905 105.1625767
  15.8902214  69.0716390 106.6605726  25.1801971  80.9046476 111.1131540
  26.1048519  80.6989337 110.9755991  25.0117275  80.6562877 112.0220881
  18.7890006  64.2022347 113.7877550  19.6116076  63.7282825 113.6656440
  19.0328070  64.9812831 114.2876236  17.4298241  67.2310605 104.0840452
  18.1506603  67.6091858 103.5804169  16.8063545  67.9499482 104.1875430
  21.5729364  67.9355754 105.0198784  21.7892978  68.8180392 104.7187612
  21.0923431  67.5441968 104.2904426  18.1724968  67.8844016 111.6450418
  18.1586537  66.9885109 111.3082716  18.8897396  67.8914679 112.2788704
  20.0251099  68.3181356 113.6903546  19.7668877  69.2398426 113.6887876
  19.4936139  67.9211790 114.3804010  24.9697287  81.4232143 106.4693631
  25.1434165  80.8578565 105.7167484  25.4626179  82.2233038 106.2873121
  17.5761864  66.7658396 106.9137988  17.6977775  65.8375042 107.1128876
  17.2863906  66.7797082 106.0016304  20.4453054  64.4513306 110.0504708
  20.4674751  64.5152639 109.0956688  20.8621113  63.6117815 110.2445214
  30.8236679  74.1868566 108.0883931  31.2667825  73.4375891 107.6903054
  29.9463189  74.1778702 107.7057663  25.9572460  80.7398907 103.5690529
  26.6523365  81.3605600 103.7877844  26.2995610  79.8894259 103.8442907
  27.8563883  78.1898613 105.0977860  28.3815207  78.5285886 104.3727180
  27.7686236  77.2545628 104.9140995  16.5491923  78.3512529 105.0053876
  16.6980043  79.0347993 104.3520548  17.3558366  78.3317619 105.5203331
  30.3669543  75.6573804 110.4806378  31.2016435  76.0963608 110.6443939
  30.5028672  75.1812457 109.6614624  27.4161049  73.2153539 116.4283866
  27.8915171  73.4081185 115.6202718  26.4926615  73.2712725 116.1827250
  14.3044556  74.3777706 106.0114944  14.0590598  73.4740036 106.2095155
  14.4740470  74.3794857 105.0694422  21.9941266  65.2501383 115.3939700
  22.5123210  65.9862410 115.0686189  21.6396399  65.5565376 116.2286459
  13.5740203  70.1106064 103.5101106  12.8809448  70.1850419 102.8541142
  13.3291955  69.3466407 104.0322623  22.2453860  61.6701665 110.9140597
  22.5255614  61.0024854 111.5401023  23.0304467  61.8630761 110.4015260
  20.0487328  80.8460659 102.4765623  19.4761295  81.4650846 102.0236095
  20.6220122  81.3960021 103.0105545  26.1162718  70.0919299 114.6612172
  27.0680141  70.1917397 114.6824396  25.9466169  69.2997568 115.1710256
  24.1377098  67.1774882 114.8471573  23.5427030  67.4579895 114.1518061
  23.8526794  67.6668783 115.6188314  23.2684588  81.1297809 103.6074205
  24.2015261  81.0643371 103.8107081  23.1807801  81.9654076 103.1488738
  25.8972605  80.4463680 100.5678153  25.8186236  80.1123543 101.4613911
  26.7182272  80.9385447 100.5669625  28.5950796  73.3125419 113.7754471
  28.5627116  72.3741420 113.9614155  29.2051420  73.3909456 113.0420296
  20.4334127  72.1821472  99.8181675  21.3793232  72.0527680  99.8870093
  20.0548372  71.4436134 100.2951104  28.7445285  70.1036462 113.8212755
  28.2284333  69.3194919 113.6342683  29.6285233  69.7755179 113.9859274
  26.4056011  63.8477478 109.7808567  26.2080833  63.5392566 110.6651899
  27.0155717  64.5739117 109.9106497  34.4127346  74.3741426 112.9160508
  35.1430734  74.1126714 113.4768212  33.8034291  73.6370148 112.9562576
  32.4942643  72.5149288 113.5134959  31.7675807  72.3805253 112.9051451
  32.0789930  72.8226117 114.3191677  18.6177044  70.1071448  99.7536561
  17.7108499  69.8104561  99.8299274  18.8953025  69.8101266  98.8870847
  20.2339110  64.6508338 105.9080802  19.4239838  64.3055423 106.2836048
  20.9223527  64.3415882 106.4968414  22.1629658  63.7286385 107.5305099
  22.7160697  64.1481838 108.1895122  22.3999744  62.8022133 107.5728055
  17.3875829  66.9658383  99.8948540  18.2494993  67.2913282 100.1544357
  17.5726173  66.1789879  99.3821606  25.5408465  65.8386910 107.0383763
  24.9607134  66.4971714 106.6561815  25.2744398  65.0164254 106.6271180
  23.9912032  65.2391968 109.2405083  24.4911810  65.3508502 108.4319402
  24.6347639  64.9353020 109.8805892  24.3233343  67.9987000 106.0940111
  23.4359198  68.2836651 105.8760306  24.7387332  67.8380764 105.2467388
  27.6747879  68.0233521 109.8094450  28.4508269  68.5129974 110.0819067
  26.9496013  68.4491575 110.2666320  30.1120438  68.7361140 110.8668391
  30.7064929  68.4956876 110.1561699  30.1847022  68.0168271 111.4941927
  23.4676557  77.7631675 100.1888131  24.1712407  77.9681677 100.8045787
  22.7439205  78.3308437 100.4537215  24.2974367  73.5141536 106.3090401
  24.2409568  73.9710088 105.4698034  24.8502709  72.7532221 106.1313244
  28.1079173  69.3031268 107.1340521  27.8516107  68.9027904 107.9648728
  27.4832041  70.0175062 107.0090660  32.4191511  72.0427341 109.6411812
  31.8591069  72.1120531 110.4143374  31.8135014  71.8668326 108.9211308
  25.3763254  78.2014204 102.2386591  26.2108858  77.7695403 102.0564066
  25.2147597  78.0296218 103.1663486  25.0309146  74.7046317 103.6042930
  24.9757950  74.5390589 102.6631375  24.4055201  75.4122350 103.7605120
  18.3405272  64.2054426 103.1828249  18.3283942  65.1496266 103.3396520
  19.2328694  64.0224572 102.8887710  22.1557391  60.7997203 107.4374186
  21.3889787  60.2455690 107.5830868  22.5668096  60.8719072 108.2988337
  34.0047529  88.7183855 112.3341768  34.6425939  88.5990603 111.6305108
  33.8868372  89.6664699 112.3929720  30.8137235  88.6711283 112.2703293
  30.4755747  88.5552348 111.3823827  31.6827004  88.2702448 112.2504299
  32.2523610  94.1917727 103.5714648  31.6011590  94.7771808 103.1848662
  33.0467973  94.7223922 103.6309686  26.1779237  91.2806865 103.9701783
  26.9510113  90.7335852 103.8314659  26.5304636  92.1451114 104.1816244
  28.5145515  87.4399531 101.6020233  28.7671035  86.9181052 100.8403696
  27.5770074  87.2765676 101.7046916  33.5588798  86.4435309 109.4094976
  34.3451887  86.0254732 109.0585393  33.8227502  87.3481401 109.5776624
  33.7298875  91.8808159 104.1083633  33.0944708  91.9542786 104.8204537
  33.3996281  92.4701758 103.4302712  38.9597225  86.3810542 110.3127954
  39.6922397  85.8109759 110.5465784  38.2036580  85.9932143 110.7534460
  28.2341804  89.3427637 103.8044608  28.1178062  88.6672540 104.4725692
  28.3444063  88.8560011 102.9876761  30.5773344  88.8037784 107.5091297
  30.2131552  88.2768405 108.2204218  31.4340460  88.4136253 107.3357782
  36.4822645  80.0932116 114.7722563  36.1505970  80.9627527 114.5483778
  35.8868258  79.7768400 115.4516593  30.2178831  83.8327683 102.5052645
  30.3853234  84.7007920 102.8723116  30.0276001  83.9954965 101.5813935
  36.3751308  84.8127203 111.8515913  35.4668186  84.7442611 111.5574674
  36.3238904  85.2899148 112.6797739  30.1968052  86.2885341 103.4899312
  30.0767678  86.7342392 104.3284793  29.5020641  86.6370659 102.9312850
  38.2412955  83.0143641 113.6293787  37.5987335  83.3076174 112.9833582
  37.7367883  82.8996561 114.4346984  35.8953118  86.7606814 104.3179646
  36.8070975  86.9934201 104.1427344  35.3862766  87.3443858 103.7554725
  34.5022701  91.7432633 111.7093228  33.8731563  91.9078347 111.0069296
  34.1148363  92.1574242 112.4804192  38.3811933  92.6787070 109.0637592
  37.6962971  93.0585972 108.5134625  38.4655782  93.2882397 109.7969539
  33.2389093  82.9364850 112.5669507  32.3773572  83.2346104 112.8586245
  33.2651528  83.1535249 111.6350540  30.0550663  91.4807041 108.9743313
  30.5189008  91.7594744 108.1847935  29.7907461  90.5790485 108.7916404
  28.9919549  87.6030193 105.7832878  29.6943592  88.0551237 106.2506804
  28.6600177  86.9614012 106.4112771  44.8414685  89.5457733 110.1840264
  44.0878394  88.9765131 110.0284268  44.9762226  89.5120398 111.1310899
  30.2313313  94.4171136 105.8594983  30.0958988  95.2622671 106.2879831
  30.7723126  94.6190413 105.0960917  33.5805777  77.9401698 114.3893877
  33.2370046  78.8303339 114.3132987  33.9484740  77.7503355 113.5263462
  33.5456060  87.9310309 102.8966312  33.0302683  88.7014913 103.1354699
  33.2733368  87.2575445 103.5199373  31.1303171  82.7760009 107.9551550
  30.2744767  82.3866860 107.7757189  31.5430122  82.8551970 107.0951336
  32.6602317  80.3106353 112.3543110  32.1567113  80.2736488 111.5410915
  32.9532924  81.2199095 112.4139767  28.9045203  80.3945082 111.3609292
  29.7698200  80.1987891 111.0015181  28.9722712  80.1655434 112.2878648
  38.5190334  90.6842663 104.8319485  37.7419777  90.3453823 104.3874647
  39.1981815  90.6895286 104.1574450  33.3342363  85.8037401 104.7226093
  33.0292498  86.1183550 105.5736236  34.2872805  85.8818821 104.7653426
  31.7788795  91.9627624 106.3719047  31.2510156  91.2280384 106.0592284
  31.2776297  92.7402300 106.1259015  36.7581641  90.1576645 111.4886093
  36.1005315  90.8475906 111.5766222  37.5622040  90.5473077 111.8320080
  26.5107522  82.6247290 108.7325658  27.0851274  82.4022472 107.9998851
  27.0978505  82.6935985 109.4854260  35.5687099  88.5121017 109.5390035
  36.0818981  89.1451009 110.0411745  36.2188323  87.9122213 109.1733395
  26.8377109  84.6551751 102.7521544  26.0014422  84.9926438 103.0730818
  26.6981879  84.5200731 101.8148681  28.8130190  79.4988539 107.4600728
  28.1594602  79.1837556 106.8357343  28.7710664  78.8764280 108.1860551
  29.9241395  89.7807834  99.3754020  29.0168457  89.5497088  99.5745169
  30.4212427  88.9845454  99.5628002  32.8309474  98.4905342 102.2950706
  32.1571172  98.7937038 102.9035664  33.2175296  99.2934422 101.9456163
  32.0467930  85.9870473 111.7848376  31.1290492  86.2085420 111.6270064
  32.4628074  86.0616783 110.9260083  32.8302978  87.3861889 106.9151056
  33.5774797  87.8983286 106.6058178  33.0994568  87.0645941 107.7755449
  31.1029628  89.8820429 103.8978010  30.1940848  89.5979462 103.9950480
  31.1324712  90.3019508 103.0381317  36.3348896  93.4927019 107.6669178
  35.8811223  92.6517929 107.7234368  35.7042862  94.1288417 108.0043958
  35.2781815  84.4219005 108.8969845  34.5404572  83.9096391 109.2280088
  35.5308589  83.9819386 108.0853122  34.7781835  95.3303515 108.6018996
  35.0704809  95.8908573 107.8831361  35.2880455  95.6232076 109.3572155
  35.3793443  77.1995257 109.4911614  35.6852319  76.3392620 109.2037529
  36.1046047  77.7912877 109.2910608  29.6514522  87.4949050 109.9987805
  29.7063132  86.5422886 109.9230282  28.8405724  87.6508489 110.4829104
  30.8005716  91.4229173 101.2366089  30.3625146  90.7065032 100.7771726
  31.5416157  91.6505288 100.6751180  27.5906882  86.1126110 107.7578184
  26.7774748  86.4120280 108.1643376  28.0865876  85.7181798 108.4752667
  38.9178831  89.6986370 107.2942407  38.7796729  89.8887966 106.3663596
  38.5615050  90.4605753 107.7510458  38.9448210  91.7662897 112.3053679
  39.3784717  91.6738186 113.1536733  39.6579791  91.7420397 111.6673695
  24.1664024  87.1289977 105.5634164  23.2361612  87.0674433 105.7804127
  24.2621496  86.6065930 104.7670806  24.0849573  83.6544790 108.1512406
  24.3456391  84.5690123 108.0421567  24.9066746  83.1869233 108.3009019
  39.8063760  91.8086598 114.8386564  39.9999650  92.7132408 115.0845839
  39.7064378  91.3494017 115.6725149  31.0300689  98.6585014 104.5097785
  31.2052445  98.1873057 105.3243408  30.3433477  99.2850780 104.7379046
  34.9216944  90.2813555 100.8298146  34.3046114  89.5560383 100.7331199
  34.4533432  91.0422915 100.4865221  26.7115490  84.4998979  99.9519451
  25.8344956  84.3787780  99.5881697  27.1873243  83.7085057  99.6998339
  33.2076066  82.6619899 109.8416176  33.7044765  81.9089861 109.5217247
  32.4363047  82.6984215 109.2759386  41.0605823  88.3660264 111.4834468
  41.0495699  89.2484980 111.1128401  40.1923203  88.0131815 111.2889005
  34.2905846  91.4191586 107.4154600  33.3562125  91.5393048 107.2459304
  34.4682515  90.5164053 107.1514610  29.7911034  84.8037282 109.5687861
  29.4208822  84.2508322 110.2568767  30.2870127  84.1995415 109.0162861
  37.6778398  87.2608905 107.9504634  38.1438850  88.0936897 107.8764937
  38.1285898  86.7953887 108.6549892  35.7454629  93.6052726 104.9490786
  36.0214473  93.4909321 105.8584660  34.8759128  93.2070211 104.9102959
  35.6495061  79.6289492 111.9895535  34.7358140  79.8593719 112.1577742
  36.0788162  79.7127936 112.8409568  35.4201519  87.8179384 114.4895429
  34.7672969  88.0655292 113.8347882  35.7981899  87.0043522 114.1557907
  32.7150858  96.7807262 105.8538648  33.2438625  96.2699717 105.2408810
  32.9779078  96.4649793 106.7184181  21.4394183  86.0940834 105.3932356
  21.7347625  85.1851512 105.3399410  20.5382219  86.0728574 105.0713359
  23.1682025  83.7754932 105.5171681  22.8394731  82.8952311 105.3346787
  23.5221396  83.7202600 106.4048071  26.2823848  84.0627902 105.8847159
  26.6219921  84.5913823 105.1625767  26.7295969  84.4008308 106.6605726
  36.0195726  96.2338393 111.1131540  36.9442273  96.0281255 110.9755991
  35.8511029  95.9854794 112.0220881  29.6283761  79.5314265 113.7877550
  30.4509830  79.0574743 113.6656440  29.8721824  80.3104748 114.2876236
  28.2691995  82.5602523 104.0840452  28.9900358  82.9383776 103.5804169
  27.6457299  83.2791400 104.1875430  32.4123118  83.2647672 105.0198784
  32.6286733  84.1472310 104.7187612  31.9317185  82.8733886 104.2904426
  29.0118722  83.2135933 111.6450418  28.9980291  82.3177027 111.3082716
  29.7291151  83.2206597 112.2788704  30.8644853  83.6473274 113.6903546
  30.6062631  84.5690344 113.6887876  30.3329894  83.2503708 114.3804010
  35.8091042  96.7524061 106.4693631  35.9827919  96.1870483 105.7167484
  36.3019933  97.5524956 106.2873121  28.4155618  82.0950314 106.9137988
  28.5371530  81.1666960 107.1128876  28.1257661  82.1089000 106.0016304
  31.2846809  79.7805224 110.0504708  31.3068506  79.8444557 109.0956688
  31.7014868  78.9409733 110.2445214  41.6630433  89.5160484 108.0883931
  42.1061579  88.7667809 107.6903054  40.7856943  89.5070620 107.7057663
  36.7966214  96.0690825 103.5690529  37.4917119  96.6897518 103.7877844
  37.1389365  95.2186176 103.8442907  38.6957638  93.5190531 105.0977860
  39.2208962  93.8577803 104.3727180  38.6079990  92.5837546 104.9140995
  27.3885677  93.6804446 105.0053876  27.5373798  94.3639911 104.3520548
  28.1952121  93.6609536 105.5203331  41.2063298  90.9865722 110.4806378
  42.0410189  91.4255526 110.6443939  41.3422427  90.5104375 109.6614624
  38.2554804  88.5445457 116.4283866  38.7308925  88.7373103 115.6202718
  37.3320369  88.6004643 116.1827250  25.1438310  89.7069624 106.0114944
  24.8984352  88.8031954 106.2095155  25.3134225  89.7086774 105.0694422
  32.8335020  80.5793300 115.3939700  33.3516964  81.3154327 115.0686189
  32.4790153  80.8857294 116.2286459  24.4133958  85.4397981 103.5101106
  23.7203203  85.5142336 102.8541142  24.1685710  84.6758325 104.0322623
  33.0847614  76.9993583 110.9140597  33.3649368  76.3316772 111.5401023
  33.8698221  77.1922678 110.4015260  30.8881083  96.1752577 102.4765623
  30.3155050  96.7942764 102.0236095  31.4613877  96.7251938 103.0105545
  36.9556473  85.4211217 114.6612172  37.9073896  85.5209314 114.6824396
  36.7859923  84.6289485 115.1710256  34.9770852  82.5066800 114.8471573
  34.3820784  82.7871813 114.1518061  34.6920549  82.9960701 115.6188314
  34.1078343  96.4589727 103.6074205  35.0409016  96.3935289 103.8107081
  34.0201555  97.2945994 103.1488738  36.7366359  95.7755597 100.5678153
  36.6579991  95.4415461 101.4613911  37.5576026  96.2677365 100.5669625
  39.4344551  88.6417337 113.7754471  39.4020871  87.7033337 113.9614155
  40.0445174  88.7201373 113.0420296  31.2727881  87.5113389  99.8181675
  32.2186986  87.3819598  99.8870093  30.8942126  86.7728051 100.2951104
  39.5839039  85.4328380 113.8212755  39.0678088  84.6486837 113.6342683
  40.4678988  85.1047097 113.9859274  37.2449766  79.1769396 109.7808567
  37.0474587  78.8684484 110.6651899  37.8549472  79.9031034 109.9106497
  45.2521100  89.7033343 112.9160508  45.9824489  89.4418631 113.4768212
  44.6428046  88.9662065 112.9562576  43.3336397  87.8441206 113.5134959
  42.6069561  87.7097171 112.9051451  42.9183684  88.1518035 114.3191677
  29.4570799  85.4363366  99.7536561  28.5502254  85.1396479  99.8299274
  29.7346780  85.1393184  98.8870847  31.0732864  79.9800256 105.9080802
  30.2633593  79.6347341 106.2836048  31.7617281  79.6707799 106.4968414
  33.0023413  79.0578302 107.5305099  33.5554451  79.4773756 108.1895122
  33.2393499  78.1314051 107.5728055  28.2269583  82.2950301  99.8948540
  29.0888747  82.6205199 100.1544357  28.4119927  81.5081797  99.3821606
  36.3802220  81.1678828 107.0383763  35.8000889  81.8263632 106.6561815
  36.1138152  80.3456172 106.6271180  34.8305786  80.5683885 109.2405083
  35.3305564  80.6800420 108.4319402  35.4741394  80.2644938 109.8805892
  35.1627098  83.3278918 106.0940111  34.2752953  83.6128569 105.8760306
  35.5781087  83.1672681 105.2467388  38.5141634  83.3525439 109.8094450
  39.2902024  83.8421891 110.0819067  37.7889768  83.7783493 110.2666320
  40.9514192  84.0653058 110.8668391  41.5458683  83.8248794 110.1561699
  41.0240776  83.3460189 111.4941927  34.3070311  93.0923593 100.1888131
  35.0106161  93.2973595 100.8045787  33.5832960  93.6600354 100.4537215
  35.1368121  88.8433454 106.3090401  35.0803323  89.3002005 105.4698034
  35.6896464  88.0824138 106.1313244  38.9472927  84.6323186 107.1340521
  38.6909862  84.2319821 107.9648728  38.3225795  85.3466980 107.0090660
  43.2585265  87.3719259 109.6411812  42.6984823  87.4412448 110.4143374
  42.6528769  87.1960244 108.9211308  36.2157009  93.5306122 102.2386591
  37.0502612  93.0987320 102.0564066  36.0541351  93.3588135 103.1663486
  35.8702901  90.0338235 103.6042930  35.8151704  89.8682507 102.6631375
  35.2448956  90.7414268 103.7605120  29.1799026  79.5346344 103.1828249
  29.1677696  80.4788184 103.3396520  30.0722448  79.3516490 102.8887710
  32.9951146  76.1289121 107.4374186  32.2283541  75.5747607 107.5830868
  33.4061851  76.2010990 108.2988337  43.0917364 109.5209645 103.5714648
  42.4405344 110.1063726 103.1848662  43.8861727 110.0515840 103.6309686
  37.0172991 106.6098782 103.9701783  37.7903867 106.0627769 103.8314659
  37.3698390 107.4743032 104.1816244  39.3539269 102.7691448 101.6020233
  39.6064790 102.2472970 100.8403696  38.4163828 102.6057594 101.7046916
  44.5692629 107.2100077 104.1083633  43.9338462 107.2834704 104.8204537
  44.2390036 107.7993676 103.4302712  39.0735558 104.6719554 103.8044608
  38.9571816 103.9964458 104.4725692  39.1837818 104.1851928 102.9876761
  41.4167099 104.1329701 107.5091297  41.0525306 103.6060322 108.2204218
  42.2734215 103.7428171 107.3357782  41.0572586  99.1619601 102.5052645
  41.2246988 100.0299838 102.8723116  40.8669755  99.3246883 101.5813935
  41.0361807 101.6177259 103.4899312  40.9161432 102.0634309 104.3284793
  40.3414395 101.9662576 102.9312850  46.7346873 102.0898732 104.3179646
  47.6464729 102.3226119 104.1427344  46.2256520 102.6735776 103.7554725
  39.8313303 102.9322111 105.7832878  40.5337347 103.3843154 106.2506804
  39.4993932 102.2905930 106.4112771  44.3849814 103.2602226 102.8966312
  43.8696438 104.0306831 103.1354699  44.1127123 102.5867363 103.5199373
  41.9696925  98.1051927 107.9551550  41.1138521  97.7158778 107.7757189
  42.3823877  98.1843888 107.0951336  39.7438958  95.7237000 111.3609292
  40.6091954  95.5279809 111.0015181  39.8116467  95.4947352 112.2878648
  44.1736117 101.1329318 104.7226093  43.8686253 101.4475468 105.5736236
  45.1266559 101.2110738 104.7653426  42.6182549 107.2919542 106.3719047
  42.0903911 106.5572301 106.0592284  42.1170052 108.0694218 106.1259015
  37.3501277  97.9539208 108.7325658  37.9245029  97.7314390 107.9998851
  37.9372259  98.0227903 109.4854260  37.6770864  99.9843669 102.7521544
  36.8408176 100.3218356 103.0730818  37.5375634  99.8492649 101.8148681
  39.6523944  94.8280457 107.4600728  38.9988357  94.5129474 106.8357343
  39.6104419  94.2056197 108.1860551  40.7635149 105.1099752  99.3754020
  39.8562211 104.8789005  99.5745169  41.2606181 104.3137371  99.5628002
  43.6696733 102.7153806 106.9151056  44.4168552 103.2275203 106.6058178
  43.9388322 102.3937859 107.7755449  41.9423383 105.2112347 103.8978010
  41.0334602 104.9271380 103.9950480  41.9718467 105.6311425 103.0381317
  46.1175570  99.7510922 108.8969845  45.3798327  99.2388309 109.2280088
  46.3702343  99.3111304 108.0853122  46.2187197  92.5287174 109.4911614
  46.5246074  91.6684538 109.2037529  46.9439802  93.1204795 109.2910608
  41.6399471 106.7521091 101.2366089  41.2018900 106.0356949 100.7771726
  42.3809911 106.9797205 100.6751180  38.4300637 101.4418027 107.7578184
  37.6168502 101.7412198 108.1643376  38.9259631 101.0473716 108.4752667
  35.0057779 102.4581895 105.5634164  34.0755367 102.3966350 105.7804127
  35.1015251 101.9357848 104.7670806  34.9243328  98.9836708 108.1512406
  35.1850145  99.8982041 108.0421567  35.7460500  98.5161150 108.3009019
  45.7610698 105.6105472 100.8298146  45.1439869 104.8852300 100.7331199
  45.2927187 106.3714832 100.4865221  37.5509244  99.8290897  99.9519451
  36.6738710  99.7079697  99.5881697  38.0266997  99.0376975  99.6998339
  44.0469820  97.9911816 109.8416176  44.5438520  97.2381779 109.5217247
  43.2756802  98.0276133 109.2759386  40.6304789 100.1329199 109.5687861
  40.2602577  99.5800240 110.2568767  41.1263881  99.5287333 109.0162861
  32.2787938 101.4232752 105.3932356  32.5741379 100.5143430 105.3399410
  31.3775974 101.4020491 105.0713359  34.0075780  99.1046849 105.5171681
  33.6788486  98.2244228 105.3346787  34.3615150  99.0494518 106.4048071
  37.1217603  99.3919819 105.8847159  37.4613675  99.9205740 105.1625767
  37.5689723  99.7300225 106.6605726  39.1085750  97.8894441 104.0840452
  39.8294112  98.2675694 103.5804169  38.4851054  98.6083318 104.1875430
  43.2516873  98.5939590 105.0198784  43.4680487  99.4764228 104.7187612
  42.7710940  98.2025803 104.2904426  39.8512477  98.5427851 111.6450418
  39.8374046  97.6468944 111.3082716  40.5684905  98.5498515 112.2788704
  39.2549373  97.4242231 106.9137988  39.3765284  96.4958877 107.1128876
  38.9651415  97.4380917 106.0016304  42.1240563  95.1097142 110.0504708
  42.1462260  95.1736475 109.0956688  42.5408622  94.2701650 110.2445214
  38.2279432 109.0096364 105.0053876  38.3767552 109.6931828 104.3520548
  39.0345875 108.9901454 105.5203331  35.9832065 105.0361542 106.0114944
  35.7378107 104.1323872 106.2095155  36.1527979 105.0378692 105.0694422
  35.2527712 100.7689899 103.5101106  34.5596957 100.8434254 102.8541142
  35.0079464 100.0050243 104.0322623  43.9241369  92.3285501 110.9140597
  44.2043123  91.6608690 111.5401023  44.7091976  92.5214596 110.4015260
  41.7274837 111.5044494 102.4765623  41.1548804 112.1234682 102.0236095
  42.3007631 112.0543856 103.0105545  47.5760114 111.1047515 100.5678153
  47.4973745 110.7707378 101.4613911  48.3969781 111.5969283 100.5669625
  42.1121636 102.8405307  99.8181675  43.0580741 102.7111515  99.8870093
  41.7335881 102.1019969 100.2951104  48.0843520  94.5061313 109.7808567
  47.8868342  94.1976401 110.6651899  48.6943226  95.2322952 109.9106497
  40.2964553 100.7655284  99.7536561  39.3896008 100.4688396  99.8299274
  40.5740534 100.4685102  98.8870847  41.9126619  95.3092173 105.9080802
  41.1027347  94.9639258 106.2836048  42.6011036  94.9999717 106.4968414
  43.8417167  94.3870220 107.5305099  44.3948206  94.8065673 108.1895122
  44.0787253  93.4605968 107.5728055  39.0663338  97.6242219  99.8948540
  39.9282502  97.9497117 100.1544357  39.2513682  96.8373715  99.3821606
  47.2195974  96.4970745 107.0383763  46.6394643  97.1555549 106.6561815
  46.9531907  95.6748090 106.6271180  45.6699540  95.8975803 109.2405083
  46.1699319  96.0092337 108.4319402  46.3135148  95.5936856 109.8805892
  46.0020852  98.6570836 106.0940111  45.1146707  98.9420486 105.8760306
  46.4174841  98.4964599 105.2467388  45.1464066 108.4215510 100.1888131
  45.8499916 108.6265513 100.8045787  44.4226714 108.9892272 100.4537215
  45.9761876 104.1725372 106.3090401  45.9197077 104.6293923 105.4698034
  46.5290218 103.4116056 106.1313244  49.7866682  99.9615103 107.1340521
  49.5303616  99.5611739 107.9648728  49.1619550 100.6758897 107.0090660
  47.0550763 108.8598039 102.2386591  47.8896367 108.4279238 102.0564066
  46.8935106 108.6880053 103.1663486  46.7096655 105.3630153 103.6042930
  46.6545459 105.1974424 102.6631375  46.0842710 106.0706186 103.7605120
  40.0192781  94.8638262 103.1828249  40.0071450  95.8080102 103.3396520
  40.9116203  94.6808407 102.8887710  43.8344900  91.4581038 107.4374186
  43.0677296  90.9039525 107.5830868  44.2455605  91.5302907 108.2988337
   4.2185097  26.7941967  87.2923459   4.1398729  26.4601830  88.1859217
   5.0394764  27.2863735  87.2914932  10.5736102  40.5396015  90.2959955
   9.9224082  41.1250095  89.9093969  11.3680465  41.0702210  90.3554993
   4.4991729  37.6285152  90.6947089   5.2722605  37.0814139  90.5559965
   4.8517128  38.4929401  90.9061551   6.8358007  33.7877818  88.3265539
   7.0883528  33.2659339  87.5649002   5.8982566  33.6243963  88.4292223
  12.0511367  38.2286447  90.8328939  11.4157200  38.3021073  91.5449844
  11.7208774  38.8180045  90.1548019   6.5554296  35.6905924  90.5289914
   6.4390554  35.0150827  91.1970999   6.6656556  35.2038298  89.7122067
   8.5391324  30.1805971  89.2297952   8.7065726  31.0486207  89.5968423
   8.3488493  30.3433252  88.3059241   8.5180545  32.6363628  90.2144619
   8.3980170  33.0820679  91.0530099   7.8233133  32.9848946  89.6558157
   6.2787437  45.4067270  93.8634750   6.2011466  46.3575095  93.9423231
   5.6749080  45.0613142  94.5209676  14.2165611  33.1085101  91.0424953
  15.1283467  33.3412488  90.8672650  13.7075258  33.6922146  90.4800032
  16.7024425  39.0265358  95.7882898  16.0175463  39.4064259  95.2379931
  16.7868274  39.6360684  96.5214846   8.3763155  37.8285328  95.6988620
   8.8401500  38.1073031  94.9093242   8.1119953  36.9268773  95.5161710
   7.3132041  33.9508480  92.5078185   8.0156084  34.4029524  92.9752111
   6.9812669  33.3092299  93.1358078  23.1627178  35.8936021  96.9085571
  22.4090886  35.3243419  96.7529575  23.2974719  35.8598685  97.8556205
   8.5525806  40.7649423  92.5840290   8.4171480  41.6100959  93.0125138
   9.0935618  40.9668701  91.8206224   2.0055203  38.2824861  93.1568215
   2.5179724  39.0768111  93.3073780   2.6577916  37.5851151  93.0901816
   3.8150088  41.3990617  95.2390968   3.9916716  42.3208582  95.0511952
   4.6106921  41.0849036  95.6685348  11.8668552  34.2788596  89.6211618
  11.3515175  35.0493201  89.8600006  11.5945860  33.6053732  90.2444680
  16.8402826  37.0320951  91.5564792  16.0632269  36.6932110  91.1119954
  17.5194307  37.0373574  90.8819757  11.6554855  32.1515688  91.4471400
  11.3504991  32.4661837  92.2981543  12.6085297  32.2297108  91.4898733
  10.1001287  38.3105911  93.0964354   9.5722648  37.5758671  92.7837591
   9.5988790  39.0880588  92.8504322  15.0794133  36.5054932  98.2131400
  14.4217807  37.1954193  98.3011529  15.8834532  36.8951364  98.5565386
  13.8899592  34.8599305  96.2635342  14.4031473  35.4929296  96.7657051
  14.5400816  34.2600500  95.8978702   5.1589602  31.0030039  89.4766850
   4.3226914  31.3404725  89.7976125   5.0194371  30.8679018  88.5393987
   8.2453887  36.1286122  86.0999327   7.3380949  35.8975375  86.2990476
   8.7424919  35.3323741  86.2873308  11.1521966  44.8383629  89.0196013
  10.4783665  45.1415326  89.6280971  11.5387788  45.6412709  88.6701470
  11.1515470  33.7340176  93.6396362  11.8987289  34.2461573  93.3303484
  11.4207060  33.4124228  94.5000756   9.4242121  36.2298716  90.6223317
   8.5153340  35.9457749  90.7195786   9.4537204  36.6497795  89.7626624
  14.6561388  39.8405306  94.3914484  14.2023715  38.9996216  94.4479675
  14.0255355  40.4766704  94.7289264  13.0994327  41.6781803  95.3264302
  13.3917302  42.2386860  94.6076668  13.6092948  41.9710364  96.0817462
   9.1218208  37.7707460  87.9611395   8.6837638  37.0543319  87.5017033
   9.8628649  37.9983575  87.3996487   8.0627952  42.4562154  96.4157756
   8.0204131  42.6823000  95.4866288   8.9790651  42.2225528  96.5643557
  17.2391323  36.0464657  94.0187714  17.1009222  36.2366253  93.0908903
  16.8827542  36.8084040  94.4755765  17.2660703  38.1141184  99.0298985
  17.6997209  38.0216473  99.8782039  17.9792283  38.0898685  98.3919001
   6.1793753  39.3325183  96.2119718   6.9734352  38.8375503  96.0102293
   5.4685446  38.8043046  95.8487424   9.3513181  45.0063301  91.2343092
   9.5264937  44.5351344  92.0488715   8.6645969  45.6329067  91.4624353
  13.2429436  36.6291842  87.5543453  12.6258607  35.9038670  87.4576506
  12.7745924  37.3901202  87.2110527   3.9174266  48.1552664  98.0082952
   4.1570865  48.7871188  98.6861971   3.0743463  47.8040704  98.2948311
   5.0327982  30.8477266  86.6764757   4.1557448  30.7266067  86.3127004
   5.5085735  30.0563344  86.4243646   8.2191908  43.2003556  93.9227278
   7.4359430  43.7425237  94.0165502   8.9184653  43.7177536  94.3221519
  19.3818315  34.7138551  98.2079775  19.3708192  35.5963267  97.8373708
  18.5135695  34.3610102  98.0134312  12.6118339  37.7669873  94.1399906
  11.6774617  37.8871336  93.9704611  12.7895007  36.8642340  93.8759916
  15.9990890  33.6087192  94.6749941  16.4651342  34.4415184  94.6010243
  16.4498391  33.1432174  95.3795199  14.0667121  39.9531014  91.6736093
  14.3426965  39.8387608  92.5829967  13.1971620  39.5548499  91.6348266
  10.7021185  44.2017365  95.3168906  10.8843580  43.3839020  95.7796659
  11.5254171  44.4185057  94.8793796  11.0363351  43.1285550  92.5783955
  11.5651117  42.6178004  91.9654117  11.2991570  42.8128080  93.4429488
   4.3919099  44.1800666  95.3381731   3.7229474  44.6646794  94.8545771
   4.2531968  44.4269887  96.2525109  11.6692754  44.1626385  98.9228071
  11.5443894  43.3616125  98.4139017  12.3271846  44.6572579  98.4342041
  13.7327663  41.9635405 100.5507621  12.7857998  41.8440757 100.4785948
  14.0810436  41.0757904 100.6333883  10.7374096  41.7588122  96.7511974
  10.5899059  40.8304829  96.9319544  11.5627590  41.7808212  96.2669049
  14.3408218  42.5816680  97.8376846  15.2654765  42.3759542  97.7001297
  14.1723521  42.3333082  98.7466188  10.7335610  29.6125959  91.7444091
  10.9499225  30.4950597  91.4432919  10.2529678  29.2212173  91.0149733
  14.1303534  43.1002348  93.1938938  14.3040412  42.5348770  92.4412790
  14.6232425  43.9003243  93.0118428  19.9842925  35.8638771  94.8129237
  20.4274071  35.1146096  94.4148361  19.1069436  35.8548907  94.4302969
  15.1178707  42.4169112  90.2935836  15.8129611  43.0375805  90.5123151
  15.4601857  41.5664464  90.5688214  17.0170130  39.8668818  91.8223167
  17.5421454  40.2056091  91.0972487  16.9292482  38.9315833  91.6386301
   8.7010791  45.9340801  96.1818420   8.2615781  45.4417180  96.8751277
   9.4518908  45.3913769  95.9410495   5.7098170  40.0282734  91.7299182
   5.8586290  40.7118198  91.0765855   6.5164613  40.0087824  92.2448638
  19.5275790  37.3344009  97.2051685  20.3622681  37.7733813  97.3689245
  19.6634919  36.8582662  96.3859931   9.2093575  42.5230864  89.2010930
   8.6367542  43.1421051  88.7481401   9.7826369  43.0730226  89.7350852
  12.4290835  42.8068014  90.3319512  13.3621508  42.7413576  90.5352387
  12.3414048  43.6424281  89.8734045  15.0578852  42.1233884  87.2923459
  14.9792483  41.7893748  88.1859217  15.8788518  42.6155652  87.2914932
   9.5940374  33.8591677  86.5426982  10.5399478  33.7297885  86.6115400
   9.2154619  33.1206339  87.0196410  23.5733593  36.0511631  99.6405815
  24.3036981  35.7896919 100.2013518  22.9640538  35.3140353  99.6807883
   7.7783291  31.7841653  86.4781867   6.8714746  31.4874766  86.5544581
   8.0559272  31.4871471  85.6116154   6.5482075  28.6428588  86.6193847
   7.4101239  28.9683487  86.8789664   6.7332420  27.8560084  86.1066912
  13.4839590  29.6757205  92.8185418  12.5965445  29.9606856  92.6005613
  13.8993579  29.5150969  91.9712695  12.6282803  39.4401880  86.9133438
  13.3318654  39.6451882  87.5291093  11.9045452  40.0078642  87.1782521
  13.4580614  35.1911741  93.0335708  13.4015815  35.6480293  92.1943340
  14.0108956  34.4302426  92.8558551  17.2685420  30.9801473  93.8585827
  17.0122354  30.5798109  94.6894035  16.6438288  31.6945267  93.7335967
  21.5797757  33.7197546  96.3657119  21.0197315  33.7890736  97.1388681
  20.9741261  33.5438531  95.6456615   4.6492966  45.1534273  98.1175305
   4.5325350  46.0979706  98.0153995   3.8285413  44.8507835  98.5061104
  14.5369501  39.8784409  88.9631898  15.3715105  39.4465608  88.7809373
  14.3753844  39.7066423  89.8908792  14.1915393  36.3816522  90.3288237
  14.1364197  36.2160794  89.3876681  13.5661448  37.0892555  90.4850427
   7.4301082  44.5593522  97.9941312   6.4796713  44.5595383  97.8805684
   7.7333569  43.8126256  97.4777347  23.1653776  50.3954060  99.0587075
  23.8032186  50.2760808  98.3550415  23.0474619  51.3434904  99.1175027
  19.9743482  50.3481488  98.9948599  19.6361994  50.2322553  98.1069134
  20.8433250  49.9472653  98.9749605  15.8330298  52.2016965  94.9845490
  15.2695163  52.1106902  94.2161778  15.7182693  51.3816869  95.4647983
  20.4563265  51.5016340 104.9534805  20.4451906  51.1069138 104.0815308
  20.6183905  50.7682413 105.5468576  13.3794730  53.6968156  97.8229711
  14.1716022  53.3558981  97.4076010  13.6191380  53.8063131  98.7431864
  21.4129857  55.8687932  90.2959955  20.7617836  56.4542013  89.9093969
  22.2074219  56.3994127  90.3554993  15.3385484  52.9577070  90.6947089
  16.1116360  52.4106057  90.5559965  15.6910883  53.8221319  90.9061551
  17.1770526  54.2853452 103.9013989  16.8860392  55.1899083 103.7860655
  17.8127511  54.3269979 104.6158058  18.1026733  51.6630300 100.4915348
  18.6990305  51.4386323  99.7772311  18.1601705  50.9215046 101.0940796
  17.6751762  49.1169736  88.3265539  17.9277282  48.5951257  87.5649002
  16.7376321  48.9535881  88.4292223  22.7195044  48.1205514  96.1340283
  23.5058134  47.7024937  95.7830700  22.9833749  49.0251606  96.3021931
  22.8905122  53.5578364  90.8328939  22.2550955  53.6312991  91.5449844
  22.5602528  54.1471963  90.1548019  28.1203472  48.0580747  97.0373261
  28.8528643  47.4879964  97.2711091  27.3642827  47.6702348  97.4779767
  17.3948050  51.0197842  90.5289914  17.2784308  50.3442745  91.1970999
  17.5050310  50.5330216  89.7122067  19.7379591  50.4807989  94.2336604
  19.3737798  49.9538610  94.9449525  20.5946707  50.0906458  94.0603089
  25.6428892  41.7702321 101.4967870  25.3112217  42.6397732 101.2729085
  25.0474505  41.4538605 102.1761900  19.3785078  45.5097888  89.2297952
  19.5459481  46.3778125  89.5968423  19.1882247  45.6725170  88.3059241
  22.1360411  53.9714867 100.8963782  21.8361134  54.8739906 100.7879590
  21.7911471  53.7047051 101.7484935  15.5872893  50.4228664  96.9300487
  14.6623389  50.2904878  97.1378179  15.8357306  51.2022883  97.4270429
  25.5357555  46.4897408  98.5761220  24.6274433  46.4212816  98.2819981
  25.4845151  46.9669352  99.4043045  19.3574299  47.9655546  90.2144619
  19.2373924  48.4112597  91.0530099  18.6626887  48.3140864  89.6558157
  12.9481704  50.0661938  97.7644276  13.0774085  50.3196417  98.6783688
  12.2679155  50.6589646  97.4448931  17.1181191  60.7359188  93.8634750
  17.0405221  61.6867013  93.9423231  16.5142835  60.3905060  94.5209676
  19.6098421  47.9087053 106.5196117  18.8331755  48.4680973 106.5098982
  20.2488984  48.3943836 107.0410987  27.4019202  44.6913846 100.3539094
  26.7593582  44.9846379  99.7078888  26.8974130  44.5766766 101.1592290
  25.0559365  48.4377019  91.0424953  25.9677221  48.6704406  90.8672650
  24.5469012  49.0214063  90.4800032  17.8644793  50.7172506 106.0814084
  18.6059478  51.2557550 105.8048908  17.1581779  51.3438795 106.2385636
  23.3400133  52.8601647 104.6786246  23.7483489  52.4184057 103.9340878
  22.6177394  52.2854274 104.9320438  19.6931203  47.7974254 102.0519802
  20.5392398  48.2213667 102.1954451  19.6329841  47.1407878 102.7458366
  23.6628948  53.4202838  98.4338534  23.0337810  53.5848552  97.7314602
  23.2754610  53.8344447  99.2049498  27.5418179  54.3557275  95.7882898
  26.8569218  54.7356177  95.2379931  27.6262029  54.9652602  96.5214846
  22.8430648  45.4578622 103.7100976  22.5991580  46.2120683 103.1735252
  23.1190579  45.8363970 104.5448223  24.7969111  52.0017234 102.3878242
  25.0086006  52.6448994 101.7112623  24.7498859  51.1679551 101.9200172
  22.3995340  44.6135055  99.2914814  21.5379819  44.9116309  99.5831551
  22.4257775  44.8305454  98.3595846  19.2156909  53.1577246  95.6988620
  19.6795255  53.4364949  94.9093242  18.9513708  52.2560690  95.5161710
  16.1080990  52.7048727  98.6368383  16.6782348  53.1335996  97.9985867
  16.6989102  52.4231312  99.3352568  18.1525795  49.2800398  92.5078185
  18.8549839  49.7321442  92.9752111  17.8206424  48.6384217  93.1358078
  11.8951129  47.5383951  97.8095318  11.1050183  47.7941479  97.3335429
  12.3862377  48.3532289  97.9147359  25.9114939  54.8789190 100.5600599
  26.7332383  54.4769377 100.2783281  25.9077342  54.7757424 101.5116715
  13.8465875  47.9028530  94.7678795  13.0497038  48.0147224  95.2862291
  13.6191467  48.2415182  93.9019685  19.6771542  54.4273233 102.7161310
  19.7415975  54.8893640 103.5519481  18.9682466  53.7970598 102.8443619
  10.1788832  47.7914441 100.2410309  10.4296871  48.6761451 100.5067885
  10.7148381  47.6119043  99.4685401  34.0020932  51.2227938  96.9085571
  33.2484640  50.6535336  96.7529575  34.1368473  51.1890603  97.8556205
  19.3919560  56.0941341  92.5840290  19.2565235  56.9392876  93.0125138
  19.9329373  56.2960618  91.8206224  12.8448958  53.6116779  93.1568215
  13.3573478  54.4060029  93.3073780  13.4971670  52.9143069  93.0901816
  14.6543842  56.7282535  95.2390968  14.8310471  57.6500500  95.0511952
  15.4500676  56.4140954  95.6685348  21.0188036  56.7164907 106.7140632
  20.5751891  55.9301286 106.3961536  21.6805250  56.9044058 106.0484523
  15.7775158  58.2460709 101.2401310  16.3282583  58.1177772 100.4678304
  14.9386634  58.5455598 100.8896203  23.1169275  56.9967707 104.7422033
  23.0987750  57.8176588 104.2502302  24.0389195  56.8721782 104.9672174
  19.5742329  54.5111837 105.5845542  20.1070666  53.7500125 105.3544850
  19.0456410  54.2185488 106.3269696  22.7412024  39.6171902 101.1139183
  22.3976293  40.5073544 101.0378294  23.1090986  39.4273560 100.2508768
  10.8097874  51.9405433  93.9327785  11.6473096  52.3502441  93.7161493
  10.9876142  51.0004875  93.9027979  22.7062306  49.6080514  89.6211618
  22.1908930  50.3785118  89.8600006  22.4339615  48.9345650  90.2444680
  20.2909417  44.4530214  94.6796857  19.4351014  44.0637065  94.5002496
  20.7036369  44.5322175  93.8196642  21.8208564  41.9876558  99.0788417
  21.3173360  41.9506693  98.2656222  22.1139171  42.8969300  99.1385073
  18.0651450  42.0715287  98.0854598  18.9304447  41.8758096  97.7260488
  18.1328959  41.8425639  99.0123955  27.6796581  52.3612868  91.5564792
  26.9026023  52.0224028  91.1119954  28.3588062  52.3665491  90.8819757
  22.4948610  47.4807606  91.4471400  22.1898745  47.7953755  92.2981543
  23.4479052  47.5589026  91.4898733  20.9395041  53.6397829  93.0964354
  20.4116403  52.9050589  92.7837591  20.4382544  54.4172505  92.8504322
  25.9187887  51.8346850  98.2131400  25.2611562  52.5246111  98.3011529
  26.7228287  52.2243281  98.5565386  15.6713769  44.3017495  95.4570965
  16.2457521  44.0792677  94.7244158  16.2584751  44.3706190  96.2099566
  24.7293346  50.1891222  96.2635342  25.2425228  50.8221214  96.7657051
  25.3794570  49.5892418  95.8978702  15.9983356  46.3321956  89.4766850
  15.1620668  46.6696643  89.7976125  15.8588126  46.1970936  88.5393987
  17.9736437  41.1758744  94.1846035  17.3200849  40.8607761  93.5602649
  17.9316911  40.5534485  94.9105857  19.0847642  51.4578039  86.0999327
  18.1774703  51.2267293  86.2990476  19.5818674  50.6615659  86.2873308
  21.9915720  60.1675546  89.0196013  21.3177419  60.4707243  89.6280971
  22.3781542  60.9704627  88.6701470  21.2074177  47.6640678  98.5093682
  20.2896738  47.8855625  98.3515370  21.6234321  47.7386988  97.6505390
  21.9909225  49.0632093  93.6396362  22.7381044  49.5753491  93.3303484
  22.2600814  48.7416146  94.5000756  20.2635875  51.5590634  90.6223317
  19.3547094  51.2749667  90.7195786  20.2930959  51.9789713  89.7626624
  25.4955142  55.1697224  94.3914484  25.0417470  54.3288134  94.4479675
  24.8649109  55.8058622  94.7289264  24.4388062  46.0989210  95.6215152
  23.7010819  45.5866596  95.9525394  24.6914836  45.6589591  94.8098429
  23.9388082  57.0073720  95.3264302  24.2311056  57.5678777  94.6076668
  24.4486702  57.3002281  96.0817462  24.5399689  38.8765462  96.2156921
  24.8458566  38.0162825  95.9282836  25.2652294  39.4683082  96.0155915
  10.8324045  49.2796148  94.6038519  10.6348445  48.6865509  93.8789585
  10.2770709  48.9748358  95.3214458  18.8120769  49.1719255  96.7233112
  18.8669379  48.2193091  96.6475589  18.0011971  49.3278694  97.2074410
  19.9611963  53.0999378  87.9611395  19.5231393  52.3835237  87.5017033
  20.7022404  53.3275493  87.3996487  16.7513129  47.7896314  94.4823491
  15.9380995  48.0890485  94.8888683  17.2472123  47.3952003  95.1997973
  18.9021707  57.7854071  96.4157756  18.8597886  58.0114918  95.4866288
  19.8184406  57.5517446  96.5643557  22.3487341  48.2538139 103.3138385
  22.7036728  48.4809612 104.1732851  22.9959472  48.5856516 102.6915640
  28.0785078  51.3756575  94.0187714  27.9402976  51.5658171  93.0908903
  27.7221296  52.1375958  94.4755765  16.2427204  45.3614670 100.0984726
  16.8826583  45.2203429  99.4007689  15.4104734  45.0749183  99.7223328
  28.1054457  53.4433102  99.0298985  28.5390964  53.3508391  99.8782039
  28.8186038  53.4190602  98.3919001  17.0187508  54.6617100  96.2119718
  17.8128106  54.1667421  96.0102293  16.3079200  54.1334964  95.8487424
  21.8382352  57.0435196 100.5632086  21.8919374  57.6126132 101.3309802
  20.9697133  57.2137081 100.1986123  13.3270271  48.8060182  92.2879471
  12.3967859  48.7444638  92.5049433  13.4227743  48.2836135  91.4916112
  13.2455820  45.3314995  94.8757713  13.5062637  46.2460328  94.7666873
  14.0672993  44.8639438  95.0254326  14.7180746  46.7452752 102.0456537
  15.3903799  46.5370114 101.3969186  13.8910532  46.5474838 101.6061770
  28.9670007  53.4856803 101.5631871  29.1605897  54.3902613 101.8091146
  28.8670625  53.0264222 102.3970456  20.6206318  43.3714693 104.0622198
  19.9734233  44.0704643 103.9686675  21.3907333  43.8050837 104.4298446
  24.0285115  53.6363545 107.1372751  23.8770622  53.4074097 106.2202835
  24.0189795  54.5934147 107.1504096  20.7970452  51.2095458 102.1219018
  21.7262512  51.3606618 101.9487985  20.3761482  51.2979479 101.2667664
  19.5958784  55.2346122  99.8917555  19.4569869  54.8664907 100.7643494
  18.8073380  55.7493762  99.7201513  20.1906936  60.3355219  91.2343092
  20.3658691  59.8643262  92.0488715  19.5039724  60.9620985  91.4624353
  21.1463999  54.6127725  97.2806393  20.8113831  54.5728495  98.1764043
  20.6467944  53.9472441  96.8076803  15.1208243  50.0195355 102.8058974
  14.9828041  49.2875594 103.4070513  16.0313166  49.9304255 102.5243162
  24.0823190  51.9583759  87.5543453  23.4652361  51.2330588  87.4576506
  23.6139679  52.7193120  87.2110527  17.7490543  49.7315314 102.2942654
  18.4590162  49.0908507 102.2529272  17.7059852  49.9828209 103.2168835
  25.7377322  56.6682668 105.2149233  25.6789868  55.9841888 104.5479816
  26.1396840  57.4101658 104.7629859  14.7568021  63.4844582  98.0082952
  14.9964619  64.1163106  98.6861971  13.9137217  63.1332622  98.2948311
  15.8721736  46.1769184  86.6764757  14.9951203  46.0557985  86.3127004
  16.3479489  45.3855262  86.4243646  25.7394729  54.6322252 103.4463213
  24.8521508  54.2948174 103.5689612  26.3093280  53.9005283 103.6831978
   7.3923876  50.9646343  96.7706264   8.0794916  50.6508074  96.1827280
   7.2372005  51.8687708  96.4973516  12.1958599  45.8536540 101.1991288
  12.1116787  45.2462210 100.4641698  11.3741305  46.3445558 101.2000784
  19.2695883  59.2923704 100.4124456  19.1966054  60.0978676 100.9243761
  18.8273276  59.4915670  99.5872478  19.0585662  58.5295474  93.9227278
  18.2753184  59.0717154  94.0165502  19.7578408  59.0469454  94.3221519
  22.3682313  44.3390104  96.5661483  22.8651012  43.5860066  96.2462553
  21.5969294  44.3754420  96.0004692  30.2212070  50.0430469  98.2079775
  30.2101946  50.9255185  97.8373708  29.3529449  49.6902020  98.0134312
  21.7294566  59.1910538 102.5682615  22.4422538  59.8258003 102.4958516
  21.2384595  59.2874404 101.7522617  23.4512093  53.0961791  94.1399906
  22.5168372  53.2163253  93.9704611  23.6288762  52.1934258  93.8759916
  18.9517281  46.4807487  96.2933168  18.5815069  45.9278527  96.9814073
  19.4476374  45.8765620  95.7408168  26.8384645  48.9379110  94.6749941
  27.3045097  49.7707102  94.6010243  27.2892145  48.4724092  95.3795199
  16.7806480  56.9404982 103.3888186  17.4815939  57.5741465 103.5417580
  16.3101595  57.2819713 102.6283825  24.9060876  55.2822931  91.6736093
  25.1820720  55.1679526  92.5829967  24.0365374  54.8840416  91.6348266
  24.8101307  41.3059697  98.7140842  23.8964387  41.5363924  98.8823049
  25.2394409  41.3898141  99.5654874  24.5807766  49.4949589 101.2140736
  23.9279216  49.7425496 100.5593189  24.9588146  48.6813727 100.8803213
  21.5414940  59.5309282  95.3168906  21.7237334  58.7130938  95.7796659
  22.3647926  59.7476974  94.8793796  21.8757105  58.4577467  92.5783955
  22.4044872  57.9469922  91.9654117  22.1385325  58.1419998  93.4429488
  20.6295339  50.2369400 107.7006773  19.9535976  50.1363529 108.3709148
  21.4522973  50.0808614 108.1642770  12.3774198  56.4741337 100.3219288
  12.9627635  55.7285025 100.4547192  12.1799036  56.7845293 101.2055952
  15.2312853  59.5092584  95.3381731  14.5623228  59.9938712  94.8545771
  15.0925723  59.7561804  96.2525109   6.9691853  49.0446937  99.0423731
   7.0075952  48.5110528  99.8360850   6.4632145  48.5182142  98.4234709
  19.3718122  61.5436328 101.9364389  19.9236430  61.7067949 102.7013474
  19.7124315  62.1340765 101.2644414  24.2228996  56.3697585 107.7913043
  24.7668900  56.9827543 107.2967998  23.6415841  56.9277163 108.3080056
  10.6000430  47.7711039  92.1177663  10.8953871  46.8621717  92.0644717
   9.6988466  47.7498778  91.7958665  22.5086509  59.4918303  98.9228071
  22.3837648  58.6908043  98.4139017  23.1665600  59.9864496  98.4342041
  14.1294677  45.8467036  98.1005211  13.4081263  46.4603003  97.9612685
  14.9187933  46.3824800  98.0221857  24.5721417  57.2927323 100.5507621
  23.6251753  57.1732674 100.4785948  24.9204190  56.4049821 100.6333883
  12.3288272  45.4525137  92.2416988  12.0000978  44.5722516  92.0592094
  12.6827642  45.3972805  93.1293377  21.5767851  57.0880039  96.7511974
  21.4292813  56.1596747  96.9319544  22.4021344  57.1100130  96.2669049
  15.4430095  45.7398106  92.6092466  15.7826167  46.2684028  91.8871074
  15.8902215  46.0778513  93.3851032  25.1801972  57.9108598  97.8376846
  26.1048520  57.7051459  97.7001297  25.0117276  57.6624999  98.7466188
  18.1373536  44.1235157 102.0595534  17.7970356  43.3242970 102.4616214
  17.4312542  44.4236868 101.4872367  18.7890008  41.2084470 100.5122857
  19.6116077  40.7344948 100.3901747  19.0328071  41.9874953 101.0121543
  17.4298242  44.2372728  90.8085758  18.1506605  44.6153981  90.3049475
  16.8063546  44.9561605  90.9120736  21.5729365  44.9417877  91.7444091
  21.7892979  45.8242515  91.4432919  21.0923432  44.5504090  91.0149733
  16.3128586  47.9003590  98.3214835  16.1673167  48.2143893  99.2139117
  15.8353790  48.5188491  97.7685734  18.1724969  44.8906138  98.3695725
  18.1586538  43.9947232  98.0328023  18.8897397  44.8976802  99.0034011
  20.0251100  45.3243478 100.4148852  19.7668878  46.2460549 100.4133183
  19.4936140  44.9273913 101.1049316  24.9697289  58.4294266  93.1938938
  25.1434166  57.8640688  92.4412790  25.4626180  59.2295160  93.0118428
  10.7874249  50.4408935 101.2602497  10.2427717  51.2168743 101.3922771
  11.6653598  50.7879739 101.1021618  17.5761865  43.7720519  93.6383295
  17.6977776  42.8437165  93.8374183  17.2863908  43.7859204  92.7261610
  20.4453056  41.4575429  96.7750015  20.4674752  41.5214762  95.8201994
  20.8621115  40.6179938  96.9690521  30.8236680  51.1930689  94.8129237
  31.2667826  50.4438014  94.4148361  29.9463190  51.1840825  94.4302969
  25.9572461  57.7461030  90.2935836  26.6523366  58.3667723  90.5123151
  26.2995611  56.8956381  90.5688214  27.8563884  55.1960735  91.8223167
  28.3815208  55.5348008  91.0972487  27.7686237  54.2607751  91.6386301
  19.5183933  59.1094809 103.9513043  19.8271059  58.8643956 104.8235743
  20.3159415  59.3141448 103.4631914  19.5404545  61.2632719  96.1818420
  19.1009535  60.7709097  96.8751277  20.2912662  60.7205686  95.9410495
  12.0196884  57.4544260  96.1843048  12.8454904  57.1548032  95.8041692
  11.6690936  56.6851882  96.6332837  16.9878417  56.8070728  98.2540722
  16.3658426  56.1441433  97.9542949  17.6583284  56.8331860  97.5714369
  10.2205489  55.3730586  97.1431982   9.3837397  54.9452760  96.9615983
  10.1929135  55.5663029  98.0802773  27.5457790  55.8293639 107.1274365
  26.7553334  55.8117778 106.5878864  27.3091145  56.3681933 107.8823401
  27.6655665  52.6786106 104.4407093  27.7153670  52.5136113 105.3822616
  27.5569589  51.8113365 104.0504974  16.5491924  55.3574651  91.7299182
  16.6980044  56.0410116  91.0765855  17.3558368  55.3379741  92.2448638
  24.9559428  48.6617034 105.7566400  25.8569291  48.5223498 105.4650398
  25.0307402  48.8271488 106.6964577  19.2902233  46.0383888 104.6019586
  18.4205543  46.3317454 104.3302175  19.5261714  46.6224333 105.3226850
  29.1673862  55.0983047 104.6849115  28.8758671  55.4613028 105.5212576
  28.5545994  54.3850055 104.5062447  30.3669545  52.6635927  97.2051685
  31.2016436  53.1025731  97.3689245  30.5028673  52.1874580  96.3859931
  27.4161051  50.2215662 103.1529173  27.8915172  50.4143308 102.3448024
  26.4926616  50.2774847 102.9072556  14.3044557  51.3839829  92.7360251
  14.0590599  50.4802159  92.9340461  14.4740472  51.3856979  91.7939729
  21.9941267  42.2563505 102.1185007  22.5123211  42.9924532 101.7931495
  21.6396400  42.5627499 102.9531766  13.5740205  47.1168186  90.2346413
  12.8809450  47.1912541  89.5786449  13.3291957  46.3528530  90.7567929
  22.2453861  38.6763788  97.6385903  22.5255615  38.0086977  98.2646330
  23.0304468  38.8692883  97.1260567  20.0487330  57.8522782  89.2010930
  19.4761297  58.4712969  88.7481401  20.6220123  58.4022143  89.7350852
  26.1162720  47.0981422 101.3857478  27.0680142  47.1979519 101.4069702
  25.9466170  46.3059690 101.8955563  24.1377099  44.1837005 101.5716879
  23.5427031  44.4642018 100.8763368  23.8526796  44.6730906 102.3433620
  23.2684589  58.1359932  90.3319512  24.2015263  58.0705493  90.5352387
  23.1807802  58.9716199  89.8734045  25.8972606  57.4525802  87.2923459
  25.8186238  57.1185666  88.1859217  26.7182273  57.9447570  87.2914932
  28.5950797  50.3187541 100.4999778  28.5627117  49.3803542 100.6859462
  29.2051421  50.3971578  99.7665603  20.4334128  49.1883594  86.5426982
  21.3793233  49.0589803  86.6115400  20.0548373  48.4498256  87.0196410
  28.7445286  47.1098585 100.5458061  28.2284334  46.3257041 100.3587990
  29.6285234  46.7817301 100.7104581  26.4056013  40.8539600  96.5053874
  26.2080834  40.5454689  97.3897206  27.0155718  41.5801239  96.6351804
  34.4127347  51.3803548  99.6405815  35.1430736  51.1188836 100.2013518
  33.8034293  50.6432270  99.6807883  32.4942644  49.5211411 100.2380266
  31.7675808  49.3867376  99.6296758  32.0789931  49.8288239 101.0436984
  20.3172821  53.2401341 108.0027639  21.2375830  53.4179940 108.1967686
  20.2822404  52.2957386 107.8507338  18.6177045  47.1133571  86.4781867
  17.7108501  46.8166684  86.5544581  18.8953026  46.8163389  85.6116154
   9.5354986  48.4339934  96.9280914   9.2157770  47.5805242  96.6355288
   8.9888414  48.6488512  97.6838881  13.3134893  51.1502375 100.6450420
  13.5320903  52.0819483 100.6638454  13.7260667  50.7910350 101.4305224
  20.2339111  41.6570461  92.6326109  19.4239839  41.3117545  93.0081355
  20.9223528  41.3478004  93.2213720  22.1629659  40.7348507  94.2550405
  22.7160698  41.1543961  94.9140428  22.3999746  39.8084255  94.2973361
  17.3875830  43.9720506  86.6193847  18.2494994  44.2975404  86.8789664
  17.5726174  43.1852002  86.1066912   9.4043246  52.0542846  98.8974035
   8.7106717  51.6396798  98.3843990  10.1516237  52.0963382  98.3007454
  25.5408466  42.8449032  93.7629070  24.9607135  43.5033837  93.3807122
  25.2744399  42.0226377  93.3516487  23.9912033  42.2454090  95.9650390
  24.4911811  42.3570625  95.1564709  24.6347641  41.9415143  96.6051198
  11.3179988  51.9861099  96.7740050  11.2950676  52.0848787  95.8221933
  11.6280625  52.8326250  97.0957216  13.9767366  54.0437254 100.8886665
  14.9310620  54.0121197 100.8216596  13.7779890  53.5827878 101.7036891
  14.5666748  52.6138371 103.4557462  15.3859637  53.1082449 103.4792300
  14.8403556  51.6970339 103.4275030  24.3233344  45.0049123  92.8185418
  23.4359199  45.2898773  92.6005613  24.7387333  44.8442886  91.9712695
  27.6747881  45.0295644  96.5339757  28.4508271  45.5192096  96.8064374
  26.9496015  45.4553698  96.9911627  30.1120439  45.7423263  97.5913698
  30.7064930  45.5018999  96.8807006  30.1847023  45.0230394  98.2187234
  12.3317595  59.5856874  97.9056862  12.1972063  58.8257275  97.3394861
  11.9149657  60.3097774  97.4385651  23.4676558  54.7693798  86.9133438
  24.1712408  54.9743800  87.5291093  22.7439207  55.3370559  87.1782521
  24.2974368  50.5203659  93.0335708  24.2409570  50.9772210  92.1943340
  24.8502711  49.7594343  92.8558551  28.1079174  46.3093391  93.8585827
  27.8516108  45.9090026  94.6894035  27.4832042  47.0237185  93.7335967
  32.4191512  49.0489464  96.3657119  31.8591070  49.1182653  97.1388681
  31.8135015  48.8730449  95.6456615  15.4886721  60.4826191  98.1175305
  15.3719105  61.4271623  98.0153995  14.6679167  60.1799753  98.5061104
  25.3763255  55.2076327  88.9631898  26.2108859  54.7757525  88.7809373
  25.2147598  55.0358340  89.8908792  25.0309147  51.7108440  90.3288237
  24.9757951  51.5452711  89.3876681  24.4055203  52.4184473  90.4850427
  22.3455055  54.0157352 109.6541800  23.2146214  54.1898004 109.2928435
  21.8661806  54.8351769 109.5317529  18.3405273  41.2116549  89.9073556
  18.3283943  42.1558389  90.0641826  19.2328695  41.0286694  89.6133017
  16.5141235  61.1354453 101.3331234  17.4168482  61.1678063 101.6497728
  16.2878605  60.2054904 101.3477569  18.2694837  59.8885439  97.9941312
  17.3190468  59.8887301  97.8805684  18.5727323  59.1418174  97.4777347
  22.1557392  37.8059326  94.1619492  21.3889788  37.2517812  94.3076175
  22.5668097  37.8781194  95.0233644  34.0047530  65.7245978  99.0587075
  34.6425940  65.6052725  98.3550415  33.8868373  66.6726822  99.1175027
  30.8137237  65.6773406  98.9948599  30.4755748  65.5614471  98.1069134
  31.6827005  65.2764571  98.9749605  26.6724052  67.5308882  94.9845490
  26.1088917  67.4398819  94.2161778  26.5576447  66.7108787  95.4647983
  31.2957020  66.8308258 104.9534805  31.2845660  66.4361056 104.0815308
  31.4577659  66.0974330 105.5468576  24.2188484  69.0260074  97.8229711
  25.0109776  68.6850899  97.4076010  24.4585134  69.1355049  98.7431864
  32.2523611  71.1979850  90.2959955  31.6011591  71.7833930  89.9093969
  33.0467974  71.7286045  90.3554993  26.1779238  68.2868987  90.6947089
  26.9510114  67.7397974  90.5559965  26.5304637  69.1513237  90.9061551
  28.0164281  69.6145369 103.9013989  27.7254147  70.5191000 103.7860655
  28.6521265  69.6561897 104.6158058  28.9420488  66.9922218 100.4915348
  29.5384060  66.7678240  99.7772311  28.9995459  66.2506963 101.0940796
  28.5145516  64.4461653  88.3265539  28.7671037  63.9243175  87.5649002
  27.5770075  64.2827799  88.4292223  33.5588799  63.4497432  96.1340283
  34.3451888  63.0316855  95.7830700  33.8227503  64.3543524  96.3021931
  33.7298876  68.8870282  90.8328939  33.0944709  68.9604909  91.5449844
  33.3996283  69.4763881  90.1548019  38.9597226  63.3872665  97.0373261
  39.6922398  62.8171882  97.2711091  38.2036582  62.9994265  97.4779767
  28.2341805  66.3489759  90.5289914  28.1178063  65.6734663  91.1970999
  28.3444065  65.8622133  89.7122067  30.5773346  65.8099906  94.2336604
  30.2131553  65.2830527  94.9449525  31.4340462  65.4198375  94.0603089
  36.4822646  57.0994239 101.4967870  36.1505971  57.9689650 101.2729085
  35.8868260  56.7830523 102.1761900  30.2178833  60.8389806  89.2297952
  30.3853235  61.7070042  89.5968423  30.0276002  61.0017088  88.3059241
  32.9754166  69.3006785 100.8963782  32.6754889  70.2031824 100.7879590
  32.6305225  69.0338968 101.7484935  26.4266647  65.7520582  96.9300487
  25.5017144  65.6196796  97.1378179  26.6751061  66.5314801  97.4270429
  36.3751310  61.8189325  98.5761220  35.4668187  61.7504734  98.2819981
  36.3238905  62.2961270  99.4043045  30.1968054  63.2947464  90.2144619
  30.0767679  63.7404514  91.0530099  29.5020642  63.6432781  89.6558157
  23.7875458  65.3953855  97.7644276  23.9167840  65.6488334  98.6783688
  23.1072910  65.9881563  97.4448931  27.9574946  76.0651105  93.8634750
  27.8798975  77.0158930  93.9423231  27.3536589  75.7196978  94.5209676
  30.4492175  63.2378971 106.5196117  29.6725510  63.7972891 106.5098982
  31.0882739  63.7235754 107.0410987  38.2412956  60.0205764 100.3539094
  37.5987336  60.3138297  99.7078888  37.7367885  59.9058684 101.1592290
  35.8953120  63.7668937  91.0424953  36.8070976  63.9996324  90.8672650
  35.3862767  64.3505981  90.4800032  28.7038548  66.0464424 106.0814084
  29.4453232  66.5849468 105.8048908  27.9975533  66.6730713 106.2385636
  34.1793887  68.1893565 104.6786246  34.5877243  67.7475975 103.9340878
  33.4571149  67.6146192 104.9320438  30.5324957  63.1266171 102.0519802
  31.3786153  63.5505585 102.1954451  30.4723595  62.4699796 102.7458366
  34.5022702  68.7494755  98.4338534  33.8731564  68.9140469  97.7314602
  34.1148364  69.1636365  99.2049498  38.3811934  69.6849193  95.7882898
  37.6962972  70.0648094  95.2379931  38.4655783  70.2944520  96.5214846
  33.6824403  60.7870540 103.7100976  33.4385335  61.5412600 103.1735252
  33.9584333  61.1655887 104.5448223  35.6362866  67.3309152 102.3878242
  35.8479761  67.9740912 101.7112623  35.5892614  66.4971469 101.9200172
  33.2389095  59.9426973  99.2914814  32.3773574  60.2408226  99.5831551
  33.2651529  60.1597372  98.3595846  30.0550664  68.4869163  95.6988620
  30.5189009  68.7656866  94.9093242  29.7907462  67.5852608  95.5161710
  26.9474745  68.0340645  98.6368383  27.5176102  68.4627913  97.9985867
  27.5382857  67.7523230  99.3352568  28.9919550  64.6092316  92.5078185
  29.6943593  65.0613359  92.9752111  28.6600178  63.9676135  93.1358078
  27.4399912  63.2004072 106.8829394  26.8098572  63.8820353 107.1164791
  27.3335999  63.0887154 105.9382532  22.7344884  62.8675868  97.8095318
  21.9443938  63.1233397  97.3335429  23.2256131  63.6824206  97.9147359
  36.7508693  70.2081108 100.5600599  37.5726137  69.8061295 100.2783281
  36.7471096  70.1049342 101.5116715  24.6859629  63.2320448  94.7678795
  23.8890793  63.3439142  95.2862291  24.4585222  63.5707100  93.9019685
  30.5165297  69.7565151 102.7161310  30.5809729  70.2185558 103.5519481
  29.8076221  69.1262516 102.8443619  21.0182587  63.1206359 100.2410309
  21.2690625  64.0053369 100.5067885  21.5542135  62.9410960  99.4685401
  44.8414687  66.5519856  96.9085571  44.0878395  65.9827254  96.7529575
  44.9762228  66.5182520  97.8556205  30.2313315  71.4233258  92.5840290
  30.0958989  72.2684794  93.0125138  30.7723127  71.6252536  91.8206224
  26.7180654  57.5024838 109.2454645  26.3247600  56.9491037 109.9202289
  27.5346795  57.8135417 109.6361163  23.6842712  68.9408696  93.1568215
  24.1967233  69.7351947  93.3073780  24.3365425  68.2434987  93.0901816
  25.4937597  72.0574453  95.2390968  25.6704225  72.9792417  95.0511952
  26.2894430  71.7432872  95.6685348  29.6348615  58.9182717 106.8374902
  30.3758329  59.5189870 106.7579364  29.8666538  58.1760355 106.2792944
  24.7789953  64.1039084 105.1153131  24.6643468  63.2024342 105.4160230
  23.9234471  64.3502781 104.7637948  31.8581791  72.0456825 106.7140632
  31.4145645  71.2593203 106.3961536  32.5199005  72.2335975 106.0484523
  26.6168912  73.5752626 101.2401310  27.1676337  73.4469690 100.4678304
  25.7780388  73.8747515 100.8896203  33.9563029  72.3259625 104.7422033
  33.9381504  73.1468506 104.2502302  34.8782949  72.2013700 104.9672174
  30.4136083  69.8403754 105.5845542  30.9464420  69.0792042 105.3544850
  29.8850164  69.5477406 106.3269696  33.5805778  54.9463820 101.1139183
  33.2370048  55.8365462 101.0378294  33.9484741  54.7565478 100.2508768
  21.6491629  67.2697351  93.9327785  22.4866851  67.6794359  93.7161493
  21.8269896  66.3296793  93.9027979  33.5456061  64.9372431  89.6211618
  33.0302684  65.7077036  89.8600006  33.2733369  64.2637567  90.2444680
  31.1303172  59.7822132  94.6796857  30.2744768  59.3928982  94.5002496
  31.5430124  59.8614093  93.8196642  32.6602319  57.3168475  99.0788417
  32.1567114  57.2798610  98.2656222  32.9532925  58.2261218  99.1385073
  28.9045204  57.4007205  98.0854598  29.7698201  57.2050014  97.7260488
  28.9722713  57.1717557  99.0123955  38.5190335  67.6904786  91.5564792
  37.7419778  67.3515945  91.1119954  39.1981816  67.6957409  90.8819757
  33.3342364  62.8099523  91.4471400  33.0292500  63.1245673  92.2981543
  34.2872806  62.8880943  91.4898733  31.7788796  68.9689747  93.0964354
  31.2510157  68.2342506  92.7837591  31.2776299  69.7464423  92.8504322
  36.7581642  67.1638767  98.2131400  36.1005316  67.8538029  98.3011529
  37.5622041  67.5535199  98.5565386  26.5107524  59.6309413  95.4570965
  27.0851275  59.4084594  94.7244158  27.0978506  59.6998107  96.2099566
  35.5687101  65.5183140  96.2635342  36.0818982  66.1513132  96.7657051
  36.2188325  64.9184335  95.8978702  26.8377111  61.6613874  89.4766850
  26.0014423  61.9988561  89.7976125  26.6981880  61.5262854  88.5393987
  28.8130191  56.5050662  94.1846035  28.1594604  56.1899679  93.5602649
  28.7710665  55.8826402  94.9105857  29.9241396  66.7869957  86.0999327
  29.0168458  66.5559210  86.2990476  30.4212428  65.9907576  86.2873308
  32.8309475  75.4967464  89.0196013  32.1571174  75.7999161  89.6280971
  33.2175297  76.2996544  88.6701470  32.0467932  62.9932595  98.5093682
  31.1290493  63.2147542  98.3515370  32.4628075  63.0678906  97.6505390
  32.8302979  64.3924011  93.6396362  33.5774798  64.9045408  93.3303484
  33.0994569  64.0708064  94.5000756  31.1029630  66.8882552  90.6223317
  30.1940849  66.6041585  90.7195786  31.1324713  67.3081630  89.7626624
  36.3348897  70.4989141  94.3914484  35.8811224  69.6580051  94.4479675
  35.7042864  71.1350540  94.7289264  35.2781817  61.4281127  95.6215152
  34.5404573  60.9158514  95.9525394  35.5308590  60.9881509  94.8098429
  34.7781836  72.3365638  95.3264302  35.0704811  72.8970695  94.6076668
  35.2880457  72.6294199  96.0817462  35.3793444  54.2057379  96.2156921
  35.6852321  53.3454743  95.9282836  36.1046049  54.7975000  96.0155915
  21.6717800  64.6088066  94.6038519  21.4742200  64.0157427  93.8789585
  21.1164464  64.3040276  95.3214458  29.6514524  64.5011172  96.7233112
  29.7063133  63.5485009  96.6475589  28.8405726  64.6570612  97.2074410
  30.8005717  68.4291295  87.9611395  30.3625147  67.7127154  87.5017033
  31.5416158  68.6567410  87.3996487  27.5906883  63.1188232  94.4823491
  26.7774749  63.4182403  94.8888683  28.0865878  62.7243921  95.1997973
  29.7415461  73.1145989  96.4157756  29.6991640  73.3406835  95.4866288
  30.6578160  72.8809364  96.5643557  33.1881095  63.5830057 103.3138385
  33.5430483  63.8101530 104.1732851  33.8353226  63.9148433 102.6915640
  38.9178832  66.7048493  94.0187714  38.7796731  66.8950089  93.0908903
  38.5615051  67.4667875  94.4755765  27.0820958  60.6906588 100.0984726
  27.7220338  60.5495347  99.4007689  26.2498489  60.4041101  99.7223328
  38.9448212  68.7725020  99.0298985  39.3784718  68.6800309  99.8782039
  39.6579792  68.7482520  98.3919001  27.8581262  69.9909018  96.2119718
  28.6521861  69.4959338  96.0102293  27.1472955  69.4626881  95.8487424
  32.6776107  72.3727114 100.5632086  32.7313129  72.9418050 101.3309802
  31.8090888  72.5428999 100.1986123  24.1664026  64.1352100  92.2879471
  23.2361614  64.0736555  92.5049433  24.2621498  63.6128053  91.4916112
  24.0849575  60.6606913  94.8757713  24.3456392  61.5752246  94.7666873
  24.9066747  60.1931355  95.0254326  25.5574500  62.0744670 102.0456537
  26.2297553  61.8662032 101.3969186  24.7304287  61.8766756 101.6061770
  39.8063761  68.8148720 101.5631871  39.9999651  69.7194531 101.8091146
  39.7064379  68.3556139 102.3970456  31.4600072  58.7006611 104.0622198
  30.8127987  59.3996560 103.9686675  32.2301087  59.1342755 104.4298446
  34.8678870  68.9655463 107.1372751  34.7164376  68.7366015 106.2202835
  34.8583549  69.9226064 107.1504096  31.6364206  66.5387376 102.1219018
  32.5656266  66.6898535 101.9487985  31.2155236  66.6271396 101.2667664
  30.4352538  70.5638040  99.8917555  30.2963624  70.1956824 100.7643494
  29.6467134  71.0785680  99.7201513  31.0300690  75.6647137  91.2343092
  31.2052446  75.1935180  92.0488715  30.3433478  76.2912903  91.4624353
  31.9857753  69.9419643  97.2806393  31.6507586  69.9020413  98.1764043
  31.4861699  69.2764359  96.8076803  25.9601997  65.3487273 102.8058974
  25.8221795  64.6167512 103.4070513  26.8706921  65.2596173 102.5243162
  34.9216945  67.2875677  87.5543453  34.3046116  66.5622505  87.4576506
  34.4533433  68.0485037  87.2110527  28.5884298  65.0607232 102.2942654
  29.2983916  64.4200424 102.2529272  28.5453606  65.3120127 103.2168835
  36.5771077  71.9974585 105.2149233  36.5183623  71.3133806 104.5479816
  36.9790595  72.7393575 104.7629859  27.3013232  62.0472450 104.1138294
  26.7650589  61.5963188 104.7659890  26.7129940  62.1818359 103.3708758
  25.5961775  78.8136499  98.0082952  25.8358374  79.4455023  98.6861971
  24.7530972  78.4624539  98.2948311  26.7115491  61.5061101  86.6764757
  25.8344957  61.3849902  86.3127004  27.1873244  60.7147180  86.4243646
  36.5788484  69.9614169 103.4463213  35.6915263  69.6240091 103.5689612
  37.1487035  69.2297201 103.6831978  18.2317631  66.2938261  96.7706264
  18.9188671  65.9799991  96.1827280  18.0765760  67.1979626  96.4973516
  23.0352353  61.1828458 101.1991288  22.9510542  60.5754127 100.4641698
  22.2135060  61.6737476 101.2000784  30.1089637  74.6215622 100.4124456
  30.0359809  75.4270593 100.9243761  29.6667030  74.8207588  99.5872478
  29.8979417  73.8587392  93.9227278  29.1146939  74.4009072  94.0165502
  30.5972162  74.3761371  94.3221519  33.2076067  59.6682021  96.5661483
  33.7044767  58.9151984  96.2462553  32.4363049  59.7046338  96.0004692
  41.0605824  65.3722387  98.2079775  41.0495701  66.2547102  97.8373708
  40.1923204  65.0193938  98.0134312  32.5688321  74.5202456 102.5682615
  33.2816293  75.1549921 102.4958516  32.0778349  74.6166322 101.7522617
  34.2905848  68.4253708  94.1399906  33.3562126  68.5455171  93.9704611
  34.4682516  67.5226175  93.8759916  29.7911036  61.8099404  96.2933168
  29.4208823  61.2570445  96.9814073  30.2870128  61.2057538  95.7408168
  37.6778399  64.2671028  94.6749941  38.1438851  65.0999019  94.6010243
  38.1285900  63.8016009  95.3795199  27.6200234  72.2696899 103.3888186
  28.3209694  72.9033382 103.5417580  27.1495349  72.6111631 102.6283825
  35.7454630  70.6114849  91.6736093  36.0214474  70.4971444  92.5829967
  34.8759129  70.2132334  91.6348266  35.6495062  56.6351615  98.7140842
  34.7358142  56.8655842  98.8823049  36.0788163  56.7190059  99.5654874
  35.4201520  64.8241507 101.2140736  34.7672971  65.0717414 100.5593189
  35.7981900  64.0105645 100.8803213  32.3808694  74.8601200  95.3168906
  32.5631089  74.0422856  95.7796659  33.2041680  75.0768892  94.8793796
  32.7150860  73.7869385  92.5783955  33.2438626  73.2761840  91.9654117
  32.9779079  73.4711915  93.4429488  31.4689093  65.5661318 107.7006773
  30.7929730  65.4655447 108.3709148  32.2916727  65.4100532 108.1642770
  23.2167952  71.8033254 100.3219288  23.8021389  71.0576942 100.4547192
  23.0192791  72.1137211 101.2055952  26.0706608  74.8384502  95.3381731
  25.4016983  75.3230629  94.8545771  25.9319477  75.0853722  96.2525109
  17.8085607  64.3738855  99.0423731  17.8469707  63.8402445  99.8360850
  17.3025900  63.8474060  98.4234709  30.2111876  76.8728245 101.9364389
  30.7630184  77.0359867 102.7013474  30.5518070  77.4632683 101.2644414
  25.1876369  59.2203395 102.5386274  25.2517696  60.0818226 102.1263671
  25.1243490  58.6077397 101.8058632  24.6628642  61.2926528 106.1859308
  25.2900681  60.9103605 106.7996832  23.8056561  61.0740730 106.5515000
  35.0622751  71.6989503 107.7913043  35.6062654  72.3119461 107.2967998
  34.4809595  72.2569081 108.3080056  21.4394185  63.1002957  92.1177663
  21.7347626  62.1913635  92.0644717  20.5382220  63.0790696  91.7958665
  33.3480263  74.8210221  98.9228071  33.2231403  74.0199961  98.4139017
  34.0059355  75.3156414  98.4342041  24.9688432  61.1758953  98.1005211
  24.2475017  61.7894921  97.9612685  25.7581687  61.7116718  98.0221857
  35.4115172  72.6219241 100.5507621  34.4645507  72.5024592 100.4785948
  35.7597945  71.7341739 100.6333883  27.7714745  58.5113380 104.3745863
  28.2949147  58.7575676 105.1372172  27.5527078  59.3433415 103.9549001
  23.1682026  60.7817054  92.2416988  22.8394732  59.9014433  92.0592094
  23.5221397  60.7264723  93.1293377  32.4161605  72.4171957  96.7511974
  32.2686568  71.4888664  96.9319544  33.2415099  72.4392048  96.2669049
  26.2823849  61.0690024  92.6092466  26.6219922  61.5975945  91.8871074
  26.7295970  61.4070430  93.3851032  36.0195727  73.2400516  97.8376846
  36.9442274  73.0343377  97.7001297  35.8511030  72.9916917  98.7466188
  28.9767290  59.4527075 102.0595534  28.6364111  58.6534888 102.4616214
  28.2706297  59.7528786 101.4872367  29.6283762  56.5376387 100.5122857
  30.4509831  56.0636865 100.3901747  29.8721826  57.3166871 101.0121543
  28.2691997  59.5664646  90.8085758  28.9900359  59.9445899  90.3049475
  27.6457301  60.2853523  90.9120736  32.4123119  60.2709795  91.7444091
  32.6286734  61.1534433  91.4432919  31.9317187  59.8796008  91.0149733
  27.1522341  63.2295508  98.3214835  27.0066922  63.5435811  99.2139117
  26.6747544  63.8480408  97.7685734  29.0118724  60.2198056  98.3695725
  28.9980292  59.3239149  98.0328023  29.7291152  60.2268720  99.0034011
  30.8644854  60.6535396 100.4148852  30.6062632  61.5752467 100.4133183
  30.3329895  60.2565831 101.1049316  35.8091043  73.7586183  93.1938938
  35.9827921  73.1932606  92.4412790  36.3019934  74.5587078  93.0118428
  21.6268003  65.7700852 101.2602497  21.0821471  66.5460660 101.3922771
  22.5047353  66.1171657 101.1021618  28.4155620  59.1012436  93.6383295
  28.5371531  58.1729082  93.8374183  28.1257662  59.1151122  92.7261610
  31.2846810  56.7867347  96.7750015  31.3068507  56.8506680  95.8201994
  31.7014869  55.9471855  96.9690521  41.6630434  66.5222606  94.8129237
  42.1061580  65.7729931  94.4148361  40.7856945  66.5132743  94.4302969
  36.7966216  73.0752948  90.2935836  37.4917120  73.6959640  90.5123151
  37.1389366  72.2248299  90.5688214  22.4134025  64.8970749 104.1532653
  21.6715761  65.0453384 104.7397284  22.0926769  65.1579014 103.2899403
  38.6957639  70.5252653  91.8223167  39.2208963  70.8639926  91.0972487
  38.6079991  69.5899668  91.6386301  30.3577688  74.4386727 103.9513043
  30.6664814  74.1935874 104.8235743  31.1553170  74.6433365 103.4631914
  30.3798300  76.5924636  96.1818420  29.9403290  76.1001015  96.8751277
  31.1306417  76.0497604  95.9410495  22.8590639  72.7836177  96.1843048
  23.6848658  72.4839949  95.8041692  22.5084691  72.0143800  96.6332837
  27.8272172  72.1362646  98.2540722  27.2052181  71.4733351  97.9542949
  28.4977039  72.1623777  97.5714369  21.0599244  70.7022504  97.1431982
  20.2231152  70.2744678  96.9615983  21.0322889  70.8954947  98.0802773
  27.8996699  60.6144434 107.8473228  27.9484855  61.4906556 107.4650997
  28.4419213  60.0721827 107.2744871  38.3851545  71.1585557 107.1274365
  37.5947089  71.1409696 106.5878864  38.1484899  71.6973851 107.8823401
  38.5049420  68.0078023 104.4407093  38.5547425  67.8428031 105.3822616
  38.3963343  67.1405282 104.0504974  27.3885679  70.6866569  91.7299182
  27.5373799  71.3702033  91.0765855  28.1952122  70.6671659  92.2448638
  35.7953182  63.9908951 105.7566400  36.6963045  63.8515416 105.4650398
  35.8701157  64.1563406 106.6964577  30.1295988  61.3675806 104.6019586
  29.2599297  61.6609372 104.3302175  30.3655468  61.9516251 105.3226850
  40.0067617  70.4274965 104.6849115  39.7152425  70.7904945 105.5212576
  39.3939748  69.7141973 104.5062447  41.2063299  67.9927844  97.2051685
  42.0410190  68.4317649  97.3689245  41.3422428  67.5166498  96.3859931
  38.2554805  65.5507579 103.1529173  38.7308927  65.7435226 102.3448024
  37.3320370  65.6066765 102.9072556  25.1438312  66.7131747  92.7360251
  24.8984354  65.8094077  92.9340461  25.3134226  66.7148897  91.7939729
  32.8335021  57.5855423 102.1185007  33.3516965  58.3216450 101.7931495
  32.4790154  57.8919416 102.9531766  24.4133959  62.4460104  90.2346413
  23.7203204  62.5204459  89.5786449  24.1685711  61.6820448  90.7567929
  33.0847616  54.0055705  97.6385903  33.3649369  53.3378894  98.2646330
  33.8698223  54.1984801  97.1260567  30.8881084  73.1814699  89.2010930
  30.3155051  73.8004886  88.7481401  31.4613878  73.7314061  89.7350852
  36.9556474  62.4273339 101.3857478  37.9073897  62.5271437 101.4069702
  36.7859924  61.6351608 101.8955563  34.9770853  59.5128923 101.5716879
  34.3820786  59.7933935 100.8763368  34.6920550  60.0022824 102.3433620
  34.1078344  73.4651849  90.3319512  35.0409017  73.3997411  90.5352387
  34.0201557  74.3008116  89.8734045  36.7366361  72.7817720  87.2923459
  36.6579992  72.4477583  88.1859217  37.5576027  73.2739488  87.2914932
  39.4344552  65.6479459 100.4999778  39.4020872  64.7095460 100.6859462
  40.0445175  65.7263496  99.7665603  31.2727883  64.5175512  86.5426982
  32.2186987  64.3881720  86.6115400  30.8942128  63.7790174  87.0196410
  39.5839040  62.4390503 100.5458061  39.0678089  61.6548959 100.3587990
  40.4678989  62.1109219 100.7104581  37.2449767  56.1831518  96.5053874
  37.0474588  55.8746606  97.3897206  37.8549473  56.9093157  96.6351804
  45.2521102  66.7095466  99.6405815  45.9824490  66.4480754 100.2013518
  44.6428047  65.9724188  99.6807883  43.3336399  64.8503329 100.2380266
  42.6069562  64.7159293  99.6296758  42.9183686  65.1580157 101.0436984
  31.1566575  68.5693258 108.0027639  32.0769585  68.7471857 108.1967686
  31.1216158  67.6249304 107.8507338  29.4570800  62.4425488  86.4781867
  28.5502255  62.1458601  86.5544581  29.7346781  62.1455307  85.6116154
  20.3748740  63.7631852  96.9280914  20.0551525  62.9097160  96.6355288
  19.8282168  63.9780430  97.6838881  24.1528648  66.4794293 100.6450420
  24.3714657  67.4111401 100.6638454  24.5654422  66.1202267 101.4305224
  31.0732866  56.9862378  92.6326109  30.2633594  56.6409463  93.0081355
  31.7617282  56.6769922  93.2213720  33.0023414  56.0640425  94.2550405
  33.5554452  56.4835878  94.9140428  33.2393500  55.1376173  94.2973361
  29.0256513  62.0527499 110.0353169  28.9253240  63.0021856 109.9665260
  28.8078055  61.7245738 109.1629239  28.2269584  59.3012424  86.6193847
  29.0888748  59.6267322  86.8789664  28.4119929  58.5143920  86.1066912
  20.2437000  67.3834763  98.8974035  19.5500472  66.9688716  98.3843990
  20.9909991  67.4255300  98.3007454  36.3802221  58.1740950  93.7629070
  35.8000890  58.8325754  93.3807122  36.1138154  57.3518295  93.3516487
  34.8305787  57.5746008  95.9650390  35.3305566  57.6862542  95.1564709
  35.4741395  57.2707061  96.6051198  28.8887783  65.4824637 108.8518231
  28.4054865  66.2824998 109.0582120  28.9748722  65.4932582 107.8985675
  22.1573743  67.3153017  96.7740050  22.1344431  67.4140704  95.8221933
  22.4674379  68.1618168  97.0957216  24.8161121  69.3729172 100.8886665
  25.7704374  69.3413115 100.8216596  24.6173644  68.9119796 101.7036891
  25.4060503  67.9430288 103.4557462  26.2253392  68.4374367 103.4792300
  25.6797310  67.0262256 103.4275030  35.1627099  60.3341041  92.8185418
  34.2752954  60.6190691  92.6005613  35.5781088  60.1734804  91.9712695
  38.5141635  60.3587562  96.5339757  39.2902025  60.8484014  96.8064374
  37.7889769  60.7845616  96.9911627  40.9514194  61.0715181  97.5913698
  41.5458684  60.8310917  96.8807006  41.0240777  60.3522311  98.2187234
  23.1711349  74.9148792  97.9056862  23.0365817  74.1549193  97.3394861
  22.7543412  75.6389692  97.4385651  34.3070312  70.0985715  86.9133438
  35.0106163  70.3035718  87.5291093  33.5832961  70.6662477  87.1782521
  35.1368123  65.8495576  93.0335708  35.0803324  66.3064128  92.1943340
  35.6896465  65.0886261  92.8558551  38.9472929  61.6385308  93.8585827
  38.6909863  61.2381944  94.6894035  38.3225797  62.3529102  93.7335967
  43.2585266  64.3781382  96.3657119  42.6984824  64.4474571  97.1388681
  42.6528770  64.2022366  95.6456615  26.3280475  75.8118109  98.1175305
  26.2112859  76.7563541  98.0153995  25.5072922  75.5091670  98.5061104
  36.2157010  70.5368244  88.9631898  37.0502614  70.1049443  88.7809373
  36.0541353  70.3650258  89.8908792  35.8702902  67.0400358  90.3288237
  35.8151706  66.8744629  89.3876681  35.2448957  67.7476391  90.4850427
  20.6595417  62.2768422 104.1549659  21.3054281  61.7667376 104.6436884
  20.4512568  63.0137104 104.7293085  33.1848809  69.3449270 109.6541800
  34.0539969  69.5189922 109.2928435  32.7055561  70.1643686 109.5317529
  29.1799027  56.5408467  89.9073556  29.1677697  57.4850307  90.0641826
  30.0722449  56.3578612  89.6133017  27.3534989  76.4646371 101.3331234
  28.2562236  76.4969981 101.6497728  27.1272359  75.5346822 101.3477569
  29.1088591  75.2177357  97.9941312  28.1584222  75.2179219  97.8805684
  29.4121078  74.4710092  97.4777347  32.9951147  53.1351243  94.1619492
  32.2283543  52.5809730  94.3076175  33.4061852  53.2073112  95.0233644
  24.9992908  59.4236039 108.2524674  25.8624370  59.0672844 108.4627998
  24.4258319  59.0849934 108.9400078  44.8441285  81.0537896  99.0587075
  45.4819695  80.9344643  98.3550415  44.7262128  82.0018739  99.1175027
  41.6530991  81.0065324  98.9948599  41.3149503  80.8906388  98.1069134
  42.5220759  80.6056489  98.9749605  37.5117807  82.8600800  94.9845490
  36.9482672  82.7690737  94.2161778  37.3970202  82.0400704  95.4647983
  42.1350774  82.1600175 104.9534805  42.1239415  81.7652974 104.0815308
  42.2971414  81.4266248 105.5468576  35.0582239  84.3551992  97.8229711
  35.8503531  84.0142816  97.4076010  35.2978889  84.4646967  98.7431864
  43.0917366  86.5271768  90.2959955  42.4405345  87.1125848  89.9093969
  43.8861728  87.0577963  90.3554993  37.0172993  83.6160905  90.6947089
  37.7903869  83.0689892  90.5559965  37.3698392  84.4805154  90.9061551
  38.8558035  84.9437287 103.9013989  38.5647901  85.8482918 103.7860655
  39.4915020  84.9853815 104.6158058  39.7814242  82.3214136 100.4915348
  40.3777814  82.0970158  99.7772311  39.8389214  81.5798881 101.0940796
  39.3539271  79.7753571  88.3265539  39.6064791  79.2535092  87.5649002
  38.4163830  79.6119716  88.4292223  44.3982553  78.7789349  96.1340283
  45.1845643  78.3608773  95.7830700  44.6621258  79.6835442  96.3021931
  44.5692631  84.2162200  90.8328939  43.9338464  84.2896826  91.5449844
  44.2390037  84.8055799  90.1548019  49.7990980  78.7164583  97.0373261
  50.5316152  78.1463799  97.2711091  49.0430336  78.3286183  97.4779767
  39.0735559  81.6781677  90.5289914  38.9571817  81.0026580  91.1970999
  39.1837819  81.1914051  89.7122067  41.4167100  81.1391824  94.2336604
  41.0525307  80.6122445  94.9449525  42.2734216  80.7490293  94.0603089
  47.3216401  72.4286157 101.4967870  46.9899726  73.2981568 101.2729085
  46.7262014  72.1122441 102.1761900  41.0572587  76.1681724  89.2297952
  41.2246990  77.0361960  89.5968423  40.8669756  76.3309005  88.3059241
  43.8147920  84.6298703 100.8963782  43.5148643  85.5323741 100.7879590
  43.4698980  84.3630886 101.7484935  37.2660402  81.0812500  96.9300487
  36.3410898  80.9488714  97.1378179  37.5144815  81.8606719  97.4270429
  47.2145064  77.1481243  98.5761220  46.3061942  77.0796651  98.2819981
  47.1632660  77.6253188  99.4043045  41.0361808  78.6239381  90.2144619
  40.9161433  79.0696432  91.0530099  40.3414396  78.9724699  89.6558157
  34.6269213  80.7245773  97.7644276  34.7561594  80.9780252  98.6783688
  33.9466664  81.3173481  97.4448931  38.7968700  91.3943023  93.8634750
  38.7192730  92.3450848  93.9423231  38.1930344  91.0488896  94.5209676
  41.2885930  78.5670888 106.5196117  40.5119264  79.1264809 106.5098982
  41.9276493  79.0527671 107.0410987  49.0806711  75.3497681 100.3539094
  48.4381091  75.6430214  99.7078888  48.5761639  75.2350602 101.1592290
  46.7346874  79.0960854  91.0424953  47.6464730  79.3288241  90.8672650
  46.2256521  79.6797899  90.4800032  39.5432302  81.3756342 106.0814084
  40.2846987  81.9141386 105.8048908  38.8369288  82.0022631 106.2385636
  45.0187642  83.5185482 104.6786246  45.4270998  83.0767893 103.9340878
  44.2964903  82.9438110 104.9320438  41.3718712  78.4558089 102.0519802
  42.2179907  78.8797503 102.1954451  41.3117350  77.7991713 102.7458366
  45.3416457  84.0786673  98.4338534  44.7125319  84.2432387  97.7314602
  44.9542119  84.4928282  99.2049498  49.2205688  85.0141111  95.7882898
  48.5356727  85.3940012  95.2379931  49.3049538  85.6236437  96.5214846
  44.5218157  76.1162457 103.7100976  44.2779089  76.8704518 103.1735252
  44.7978088  76.4947805 104.5448223  46.4756620  82.6601070 102.3878242
  46.6873515  83.3032830 101.7112623  46.4286368  81.8263386 101.9200172
  44.0782849  75.2718890  99.2914814  43.2167328  75.5700144  99.5831551
  44.1045284  75.4889289  98.3595846  40.8944418  83.8161081  95.6988620
  41.3582764  84.0948784  94.9093242  40.6301217  82.9144526  95.5161710
  37.7868499  83.3632563  98.6368383  38.3569857  83.7919831  97.9985867
  38.3776611  83.0815147  99.3352568  39.8313304  79.9384233  92.5078185
  40.5337348  80.3905277  92.9752111  39.4993933  79.2968052  93.1358078
  38.2793666  78.5295990 106.8829394  37.6492327  79.2112271 107.1164791
  38.1729754  78.4179072 105.9382532  33.5738638  78.1967786  97.8095318
  32.7837692  78.4525315  97.3335429  34.0649886  79.0116124  97.9147359
  47.5902448  85.5373025 100.5600599  48.4119892  85.1353212 100.2783281
  47.5864851  85.4341259 101.5116715  35.5253384  78.5612365  94.7678795
  34.7284547  78.6731060  95.2862291  35.2978976  78.8999017  93.9019685
  41.3559051  85.0857068 102.7161310  41.4203484  85.5477476 103.5519481
  40.6469975  84.4554433 102.8443619  31.8576341  78.4498276 100.2410309
  32.1084380  79.3345286 100.5067885  32.3935890  78.2702878  99.4685401
  55.6808441  81.8811774  96.9085571  54.9272149  81.3119172  96.7529575
  55.8155982  81.8474438  97.8556205  41.0707069  86.7525176  92.5840290
  40.9352744  87.5976712  93.0125138  41.6116882  86.9544454  91.8206224
  37.5574409  72.8316756 109.2454645  37.1641354  72.2782954 109.9202289
  38.3740549  73.1427334 109.6361163  34.5236466  84.2700614  93.1568215
  35.0360987  85.0643864  93.3073780  35.1759179  83.5726904  93.0901816
  36.3331351  87.3866370  95.2390968  36.5097980  88.3084335  95.0511952
  37.1288185  87.0724789  95.6685348  40.4742370  74.2474635 106.8374902
  41.2152083  74.8481788 106.7579364  40.7060293  73.5052273 106.2792944
  35.6183708  79.4331002 105.1153131  35.5037223  78.5316259 105.4160230
  34.7628225  79.6794699 104.7637948  42.6975545  87.3748742 106.7140632
  42.2539400  86.5885121 106.3961536  43.3592759  87.5627893 106.0484523
  37.4562667  88.9044544 101.2401310  38.0070092  88.7761607 100.4678304
  36.6174143  89.2039433 100.8896203  44.7956784  87.6551542 104.7422033
  44.7775259  88.4760423 104.2502302  45.7176704  87.5305618 104.9672174
  41.2529838  85.1695672 105.5845542  41.7858174  84.4083960 105.3544850
  40.7243919  84.8769324 106.3269696  44.4199533  70.2755738 101.1139183
  44.0763802  71.1657380 101.0378294  44.7878495  70.0857395 100.2508768
  32.4885383  82.5989268  93.9327785  33.3260605  83.0086277  93.7161493
  32.6663651  81.6588710  93.9027979  44.3849815  80.2664349  89.6211618
  43.8696439  81.0368954  89.8600006  44.1127124  79.5929485  90.2444680
  41.9696926  75.1114050  94.6796857  41.1138523  74.7220900  94.5002496
  42.3823878  75.1906011  93.8196642  43.4996073  72.6460393  99.0788417
  42.9960869  72.6090528  98.2656222  43.7926680  73.5553136  99.1385073
  39.7438959  72.7299123  98.0854598  40.6091956  72.5341931  97.7260488
  39.8116468  72.5009474  99.0123955  49.3584090  83.0196704  91.5564792
  48.5813532  82.6807863  91.1119954  50.0375570  83.0249327  90.8819757
  44.1736119  78.1391441  91.4471400  43.8686254  78.4537590  92.2981543
  45.1266561  78.2172861  91.4898733  42.6182550  84.2981664  93.0964354
  42.0903912  83.5634424  92.7837591  42.1170053  85.0756341  92.8504322
  47.5975396  82.4930685  98.2131400  46.9399071  83.1829946  98.3011529
  48.4015796  82.8827117  98.5565386  37.3501278  74.9601331  95.4570965
  37.9245030  74.7376512  94.7244158  37.9372260  75.0290025  96.2099566
  46.4080855  80.8475058  96.2635342  46.9212737  81.4805049  96.7657051
  47.0582079  80.2476253  95.8978702  37.6770865  76.9905792  89.4766850
  36.8408177  77.3280478  89.7976125  37.5375635  76.8554771  88.5393987
  39.6523946  71.8342580  94.1846035  38.9988358  71.5191597  93.5602649
  39.6104420  71.2118320  94.9105857  40.7635151  82.1161875  86.0999327
  39.8562212  81.8851128  86.2990476  41.2606183  81.3199494  86.2873308
  43.6703229  90.8259382  89.0196013  42.9964928  91.1291079  89.6280971
  44.0569051  91.6288462  88.6701470  42.8861686  78.3224513  98.5093682
  41.9684247  78.5439460  98.3515370  43.3021830  78.3970824  97.6505390
  43.6696734  79.7215929  93.6396362  44.4168553  80.2337326  93.3303484
  43.9388323  79.3999982  94.5000756  41.9423384  82.2174470  90.6223317
  41.0334603  81.9333502  90.7195786  41.9718468  82.6373548  89.7626624
  47.1742651  85.8281059  94.3914484  46.7204979  84.9871969  94.4479675
  46.5436618  86.4642457  94.7289264  46.1175571  76.7573045  95.6215152
  45.3798328  76.2450431  95.9525394  46.3702345  76.3173427  94.8098429
  45.6175591  87.6657556  95.3264302  45.9098565  88.2262613  94.6076668
  46.1274211  87.9586117  96.0817462  46.2187198  69.5349297  96.2156921
  46.5246075  68.6746660  95.9282836  46.9439803  70.1266917  96.0155915
  32.5111554  79.9379984  94.6038519  32.3135954  79.3449344  93.8789585
  31.9558218  79.6332194  95.3214458  40.4908278  79.8303090  96.7233112
  40.5456888  78.8776927  96.6475589  39.6799480  79.9862529  97.2074410
  41.6399472  83.7583213  87.9611395  41.2018902  83.0419072  87.5017033
  42.3809913  83.9859328  87.3996487  38.4300638  78.4480150  94.4823491
  37.6168504  78.7474320  94.8888683  38.9259632  78.0535839  95.1997973
  40.5809216  88.4437907  96.4157756  40.5385395  88.6698753  95.4866288
  41.4971915  88.2101281  96.5643557  44.0274850  78.9121974 103.3138385
  44.3824237  79.1393447 104.1732851  44.6746981  79.2440351 102.6915640
  49.7572587  82.0340410  94.0187714  49.6190485  82.2242006  93.0908903
  49.4008805  82.7959793  94.4755765  37.9214713  76.0198505 100.0984726
  38.5614092  75.8787264  99.4007689  37.0892243  75.7333019  99.7223328
  49.7841966  84.1016937  99.0298985  50.2178473  84.0092226  99.8782039
  50.4973547  84.0774438  98.3919001  38.6975017  85.3200936  96.2119718
  39.4915615  84.8251256  96.0102293  37.9866709  84.7918799  95.8487424
  43.5169861  87.7019031 100.5632086  43.5706883  88.2709968 101.3309802
  42.6484642  87.8720916 100.1986123  35.0057780  79.4644018  92.2879471
  34.0755368  79.4028473  92.5049433  35.1015252  78.9419970  91.4916112
  34.9243329  75.9898830  94.8757713  35.1850146  76.9044164  94.7666873
  35.7460501  75.5223273  95.0254326  36.3968254  77.4036588 102.0456537
  37.0691308  77.1953950 101.3969186  35.5698041  77.2058674 101.6061770
  50.6457516  84.1440638 101.5631871  50.8393406  85.0486448 101.8091146
  50.5458134  83.6848057 102.3970456  42.2993826  74.0298528 104.0622198
  41.6521742  74.7288478 103.9686675  43.0694842  74.4634672 104.4298446
  45.7072624  84.2947381 107.1372751  45.5558131  84.0657932 106.2202835
  45.6977304  85.2517982 107.1504096  42.4757961  81.8679293 102.1219018
  43.4050021  82.0190453 101.9487985  42.0548991  81.9563314 101.2667664
  41.2746293  85.8929958  99.8917555  41.1357378  85.5248742 100.7643494
  40.4860889  86.4077597  99.7201513  41.8694445  90.9939054  91.2343092
  42.0446200  90.5227097  92.0488715  41.1827233  91.6204820  91.4624353
  42.8251508  85.2711560  97.2806393  42.4901340  85.2312330  98.1764043
  42.3255453  84.6056276  96.8076803  36.7995752  80.6779190 102.8058974
  36.6615550  79.9459429 103.4070513  37.7100675  80.5888091 102.5243162
  45.7610699  82.6167595  87.5543453  45.1439870  81.8914423  87.4576506
  45.2927188  83.3776955  87.2110527  39.4278052  80.3899150 102.2942654
  40.1377671  79.7492342 102.2529272  39.3847361  80.6412045 103.2168835
  47.4164831  87.3266503 105.2149233  47.3577377  86.6425723 104.5479816
  47.8184349  88.0685493 104.7629859  38.1406986  77.3764368 104.1138294
  37.6044343  76.9255106 104.7659890  37.5523695  77.5110277 103.3708758
  36.4355530  94.1428417  98.0082952  36.6752128  94.7746941  98.6861971
  35.5924726  93.7916457  98.2948311  37.5509245  76.8353019  86.6764757
  36.6738712  76.7141820  86.3127004  38.0266998  76.0439097  86.4243646
  47.4182238  85.2906087 103.4463213  46.5309017  84.9532009 103.5689612
  47.9880789  84.5589118 103.6831978  29.0711385  81.6230179  96.7706264
  29.7582425  81.3091909  96.1827280  28.9159514  82.5271543  96.4973516
  33.8746108  76.5120375 101.1991288  33.7904296  75.9046045 100.4641698
  33.0528814  77.0029394 101.2000784  40.9483392  89.9507539 100.4124456
  40.8753563  90.7562511 100.9243761  40.5060785  90.1499505  99.5872478
  40.7373171  89.1879309  93.9227278  39.9540693  89.7300990  94.0165502
  41.4365917  89.7053289  94.3221519  44.0469821  74.9973939  96.5661483
  44.5438521  74.2443901  96.2462553  43.2756803  75.0338256  96.0004692
  51.8999579  80.7014304  98.2079775  51.8889455  81.5839020  97.8373708
  51.0316958  80.3485855  98.0134312  43.4082075  89.8494373 102.5682615
  44.1210047  90.4841838 102.4958516  42.9172104  89.9458239 101.7522617
  45.1299602  83.7545626  94.1399906  44.1955881  83.8747089  93.9704611
  45.3076271  82.8518093  93.8759916  40.6304790  77.1391322  96.2933168
  40.2602578  76.5862362  96.9814073  41.1263883  76.5349455  95.7408168
  48.5172154  79.5962945  94.6749941  48.9832606  80.4290937  94.6010243
  48.9679654  79.1307927  95.3795199  38.4593989  87.5988817 103.3888186
  39.1603448  88.2325300 103.5417580  37.9889104  87.9403548 102.6283825
  46.5848385  85.9406767  91.6736093  46.8608229  85.8263361  92.5829967
  45.7152883  85.5424252  91.6348266  46.4888816  71.9643532  98.7140842
  45.5751896  72.1947759  98.8823049  46.9181918  72.0481976  99.5654874
  46.2595275  80.1533424 101.2140736  45.6066725  80.4009332 100.5593189
  46.6375655  79.3397563 100.8803213  43.2202449  90.1893118  95.3168906
  43.4024843  89.3714774  95.7796659  44.0435435  90.4060810  94.8793796
  43.5544614  89.1161303  92.5783955  44.0832381  88.6053757  91.9654117
  43.8172834  88.8003833  93.4429488  42.3082848  80.8953235 107.7006773
  41.6323485  80.7947365 108.3709148  43.1310482  80.7392449 108.1642770
  34.0561707  87.1325172 100.3219288  34.6415144  86.3868860 100.4547192
  33.8586545  87.4429129 101.2055952  36.9100362  90.1676419  95.3381731
  36.2410737  90.6522547  94.8545771  36.7713232  90.4145640  96.2525109
  28.6479362  79.7030772  99.0423731  28.6863461  79.1694363  99.8360850
  28.1419654  79.1765978  98.4234709  41.0505631  92.2020163 101.9364389
  41.6023939  92.3651784 102.7013474  41.3911824  92.7924601 101.2644414
  36.0270124  74.5495313 102.5386274  36.0911450  75.4110144 102.1263671
  35.9637244  73.9369314 101.8058632  35.5022396  76.6218445 106.1859308
  36.1294435  76.2395523 106.7996832  34.6450315  76.4032647 106.5515000
  45.9016505  87.0281420 107.7913043  46.4456409  87.6411379 107.2967998
  45.3203350  87.5860999 108.3080056  32.2787939  78.4294874  92.1177663
  32.5741380  77.5205553  92.0644717  31.3775975  78.4082614  91.7958665
  44.1874018  90.1502138  98.9228071  44.0625157  89.3491878  98.4139017
  44.8453109  90.6448332  98.4342041  35.8082186  76.5050871  98.1005211
  35.0868772  77.1186839  97.9612685  36.5975442  77.0408636  98.0221857
  46.2508926  87.9511159 100.5507621  45.3039262  87.8316510 100.4785948
  46.5991699  87.0633657 100.6333883  38.6108500  73.8405297 104.3745863
  39.1342902  74.0867594 105.1372172  38.3920833  74.6725332 103.9549001
  34.0075781  76.1108972  92.2416988  33.6788487  75.2306351  92.0592094
  34.3615151  76.0556641  93.1293377  43.2555360  87.7463875  96.7511974
  43.1080322  86.8180582  96.9319544  44.0808853  87.7683965  96.2669049
  37.1217604  76.3981942  92.6092466  37.4613676  76.9267863  91.8871074
  37.5689724  76.7362348  93.3851032  46.8589481  88.5692433  97.8376846
  47.7836029  88.3635295  97.7001297  46.6904785  88.3208835  98.7466188
  39.8161045  74.7818993 102.0595534  39.4757865  73.9826806 102.4616214
  39.1100051  75.0820703 101.4872367  40.4677517  71.8668305 100.5122857
  41.2903586  71.3928783 100.3901747  40.7115580  72.6458789 101.0121543
  39.1085751  74.8956563  90.8085758  39.8294114  75.2737816  90.3049475
  38.4851055  75.6145440  90.9120736  43.2516874  75.6001712  91.7444091
  43.4680488  76.4826350  91.4432919  42.7710941  75.2087926  91.0149733
  37.9916095  78.5587426  98.3214835  37.8460676  78.8727729  99.2139117
  37.5141299  79.1772326  97.7685734  39.8512478  75.5489974  98.3695725
  39.8374047  74.6531067  98.0328023  40.5684906  75.5560637  99.0034011
  41.7038609  75.9827314 100.4148852  41.4456387  76.9044384 100.4133183
  41.1723649  75.5857748 101.1049316  46.6484798  89.0878101  93.1938938
  46.8221675  88.5224523  92.4412790  47.1413689  89.8878996  93.0118428
  32.4661757  81.0992770 101.2602497  31.9215226  81.8752578 101.3922771
  33.3441107  81.4463574 101.1021618  39.2549374  74.4304354  93.6383295
  39.3765285  73.5021000  93.8374183  38.9651417  74.4443040  92.7261610
  42.1240565  72.1159264  96.7750015  42.1462261  72.1798597  95.8201994
  42.5408624  71.2763773  96.9690521  52.5024189  81.8514524  94.8129237
  52.9455335  81.1021849  94.4148361  51.6250699  81.8424660  94.4302969
  47.6359970  88.4044865  90.2935836  48.3310875  89.0251558  90.5123151
  47.9783120  87.5540217  90.5688214  33.2527779  80.2262666 104.1532653
  32.5109515  80.3745302 104.7397284  32.9320524  80.4870932 103.2899403
  49.5351393  85.8544571  91.8223167  50.0602717  86.1931844  91.0972487
  49.4473746  84.9191586  91.6386301  41.1971442  89.7678644 103.9513043
  41.5058568  89.5227791 104.8235743  41.9946924  89.9725283 103.4631914
  41.2192054  91.9216554  96.1818420  40.7797044  91.4292933  96.8751277
  41.9700171  91.3789522  95.9410495  33.6984393  88.1128095  96.1843048
  34.5242413  87.8131867  95.8041692  33.3478445  87.3435717  96.6332837
  38.6665926  87.4654563  98.2540722  38.0445935  86.8025268  97.9542949
  39.3370793  87.4915695  97.5714369  31.8992998  86.0314421  97.1431982
  31.0624906  85.6036596  96.9615983  31.8716644  86.2246865  98.0802773
  38.7390454  75.9436351 107.8473228  38.7878609  76.8198474 107.4650997
  39.2812968  75.4013744 107.2744871  49.2245299  86.4877474 107.1274365
  48.4340843  86.4701613 106.5878864  48.9878654  87.0265768 107.8823401
  49.3443174  83.3369941 104.4407093  49.3941179  83.1719948 105.3822616
  49.2357098  82.4697200 104.0504974  38.2279433  86.0158487  91.7299182
  38.3767553  86.6993951  91.0765855  39.0345877  85.9963577  92.2448638
  46.6346937  79.3200869 105.7566400  47.5356800  79.1807334 105.4650398
  46.7094911  79.4855324 106.6964577  40.9689742  76.6967724 104.6019586
  40.0993052  76.9901290 104.3302175  41.2049222  77.2808169 105.3226850
  50.8461371  85.7566882 104.6849115  50.5546180  86.1196863 105.5212576
  50.2333503  85.0433891 104.5062447  52.0457054  83.3219762  97.2051685
  52.8803945  83.7609566  97.3689245  52.1816182  82.8458415  96.3859931
  49.0948559  80.8799497 103.1529173  49.5702681  81.0727143 102.3448024
  48.1714125  80.9358683 102.9072556  35.9832066  82.0423664  92.7360251
  35.7378108  81.1385994  92.9340461  36.1527981  82.0440815  91.7939729
  43.6728776  72.9147341 102.1185007  44.1910720  73.6508367 101.7931495
  43.3183909  73.2211334 102.9531766  35.2527714  77.7752022  90.2346413
  34.5596959  77.8496377  89.5786449  35.0079466  77.0112365  90.7567929
  43.9241370  69.3347623  97.6385903  44.2043124  68.6670812  98.2646330
  44.7091977  69.5276719  97.1260567  41.7274839  88.5106617  89.2010930
  41.1548806  89.1296804  88.7481401  42.3007632  89.0605979  89.7350852
  47.7950228  77.7565257 101.3857478  48.7467651  77.8563355 101.4069702
  47.6253679  76.9643526 101.8955563  45.8164608  74.8420840 101.5716879
  45.2214540  75.1225853 100.8763368  45.5314305  75.3314741 102.3433620
  44.9472098  88.7943767  90.3319512  45.8802772  88.7289329  90.5352387
  44.8595311  89.6300034  89.8734045  47.5760115  88.1109637  87.2923459
  47.4973747  87.7769501  88.1859217  48.3969782  88.6031405  87.2914932
  50.2738306  80.9771377 100.4999778  50.2414626  80.0387378 100.6859462
  50.8838930  81.0555413  99.7665603  42.1121637  79.8467430  86.5426982
  43.0580742  79.7173638  86.6115400  41.7335882  79.1082092  87.0196410
  50.4232795  77.7682420 100.5458061  49.9071843  76.9840877 100.3587990
  51.3072743  77.4401137 100.7104581  48.0843522  71.5123436  96.5053874
  47.8868343  71.2038524  97.3897206  48.6943227  72.2385075  96.6351804
  56.0914856  82.0387384  99.6405815  56.8218245  81.7772672 100.2013518
  55.4821802  81.3016106  99.6807883  54.1730153  80.1795246 100.2380266
  53.4463317  80.0451211  99.6296758  53.7577440  80.4872075 101.0436984
  41.9960330  83.8985176 108.0027639  42.9163339  84.0763775 108.1967686
  41.9609913  82.9541221 107.8507338  40.2964554  77.7717406  86.4781867
  39.3896010  77.4750519  86.5544581  40.5740535  77.4747224  85.6116154
  31.2142495  79.0923770  96.9280914  30.8945279  78.2389078  96.6355288
  30.6675923  79.3072348  97.6838881  34.9922402  81.8086211 100.6450420
  35.2108412  82.7403318 100.6638454  35.4048176  81.4494185 101.4305224
  41.9126620  72.3154296  92.6326109  41.1027348  71.9701381  93.0081355
  42.6011037  72.0061840  93.2213720  43.8417168  71.3932343  94.2550405
  44.3948207  71.8127796  94.9140428  44.0787255  70.4668091  94.2973361
  39.8650268  77.3819416 110.0353169  39.7646994  78.3313773 109.9665260
  39.6471810  77.0537655 109.1629239  39.0663339  74.6304341  86.6193847
  39.9282503  74.9559240  86.8789664  39.2513683  73.8435837  86.1066912
  31.0830755  82.7126681  98.8974035  30.3894226  82.2980634  98.3843990
  31.8303746  82.7547218  98.3007454  47.2195975  73.5032868  93.7629070
  46.6394644  74.1617672  93.3807122  46.9531908  72.6810212  93.3516487
  45.6699542  72.9037926  95.9650390  46.1699320  73.0154460  95.1564709
  46.3135150  72.5998978  96.6051198  39.7281538  80.8116555 108.8518231
  39.2448619  81.6116915 109.0582120  39.8142477  80.8224500 107.8985675
  32.9967497  82.6444935  96.7740050  32.9738185  82.7432622  95.8221933
  33.3068134  83.4910086  97.0957216  35.6554875  84.7021090 100.8886665
  36.6098129  84.6705032 100.8216596  35.4567399  84.2411714 101.7036891
  36.2454257  83.2722206 103.4557462  37.0647146  83.7666285 103.4792300
  36.5191065  82.3554174 103.4275030  46.0020853  75.6632958  92.8185418
  45.1146708  75.9482609  92.6005613  46.4174842  75.5026722  91.9712695
  49.3535390  75.6879479  96.5339757  50.1295780  76.1775932  96.8064374
  48.6283524  76.1137533  96.9911627  51.7907948  76.4007098  97.5913698
  52.3852439  76.1602834  96.8807006  51.8634532  75.6814229  98.2187234
  34.0105104  90.2440709  97.9056862  33.8759572  89.4841110  97.3394861
  33.5937166  90.9681609  97.4385651  45.1464067  85.4277633  86.9133438
  45.8499917  85.6327635  87.5291093  44.4226716  85.9954395  87.1782521
  45.9761877  81.1787494  93.0335708  45.9197079  81.6356046  92.1943340
  46.5290220  80.4178179  92.8558551  49.7866683  76.9677226  93.8585827
  49.5303617  76.5673862  94.6894035  49.1619551  77.6821020  93.7335967
  54.0979021  79.7073299  96.3657119  53.5378579  79.7766489  97.1388681
  53.4922524  79.5314284  95.6456615  37.1674230  91.1410026  98.1175305
  37.0506614  92.0855459  98.0153995  36.3466676  90.8383588  98.5061104
  47.0550764  85.8660162  88.9631898  47.8896368  85.4341361  88.7809373
  46.8935107  85.6942176  89.8908792  46.7096656  82.3692275  90.3288237
  46.6545460  82.2036547  89.3876681  46.0842712  83.0768308  90.4850427
  31.4989171  77.6060340 104.1549659  32.1448035  77.0959294 104.6436884
  31.2906323  78.3429021 104.7293085  44.0242564  84.6741187 109.6541800
  44.8933723  84.8481840 109.2928435  43.5449315  85.4935604 109.5317529
  40.0192782  71.8700384  89.9073556  40.0071452  72.8142224  90.0641826
  40.9116204  71.6870530  89.6133017  38.1928744  91.7938288 101.3331234
  39.0955991  91.8261899 101.6497728  37.9666114  90.8638739 101.3477569
  39.9482346  90.5469275  97.9941312  38.9977977  90.5471136  97.8805684
  40.2514832  89.8002009  97.4777347  43.8344901  68.4643161  94.1619492
  43.0677297  67.9101648  94.3076175  44.2455606  68.5365030  95.0233644
  35.8386662  74.7527957 108.2524674  36.7018124  74.3964762 108.4627998
  35.2652073  74.4141852 108.9400078  55.6835039  96.3829813  99.0587075
  56.3213449  96.2636561  98.3550415  55.5655882  97.3310657  99.1175027
  52.4924746  96.3357241  98.9948599  52.1543257  96.2198306  98.1069134
  53.3614514  95.9348406  98.9749605  48.3511561  98.1892718  94.9845490
  47.7876426  98.0982655  94.2161778  48.2363956  97.3692622  95.4647983
  52.9744529  97.4892093 104.9534805  52.9633169  97.0944891 104.0815308
  53.1365168  96.7558166 105.5468576  45.8975993  99.6843909  97.8229711
  46.6897285  99.3434734  97.4076010  46.1372643  99.7938884  98.7431864
  53.9311120 101.8563685  90.2959955  53.2799100 102.4417766  89.9093969
  54.7255483 102.3869880  90.3554993  47.8566747  98.9452823  90.6947089
  48.6297623  98.3981810  90.5559965  48.2092146  99.8097072  90.9061551
  49.6951790 100.2729205 103.9013989  49.4041656 101.1774836 103.7860655
  50.3308774 100.3145732 104.6158058  50.6207997  97.6506053 100.4915348
  51.2171569  97.4262076  99.7772311  50.6782968  96.9090799 101.0940796
  50.1933025  95.1045489  88.3265539  50.4458546  94.5827010  87.5649002
  49.2557584  94.9411634  88.4292223  55.2376308  94.1081267  96.1340283
  56.0239397  93.6900690  95.7830700  55.5015012  95.0127359  96.3021931
  55.4086385  99.5454117  90.8328939  54.7732218  99.6188744  91.5449844
  55.0783792 100.1347716  90.1548019  60.6384735  94.0456500  97.0373261
  61.3709907  93.4755717  97.2711091  59.8824091  93.6578101  97.4779767
  49.9129314  97.0073595  90.5289914  49.7965572  96.3318498  91.1970999
  50.0231574  96.5205969  89.7122067  52.2560855  96.4683742  94.2336604
  51.8919062  95.9414363  94.9449525  53.1127971  96.0782211  94.0603089
  58.1610155  87.7578074 101.4967870  57.8293480  88.6273485 101.2729085
  57.5655769  87.4414358 102.1761900  51.8966342  91.4973641  89.2297952
  52.0640744  92.3653878  89.5968423  51.7063511  91.6600923  88.3059241
  54.6541675  99.9590620 100.8963782  54.3542398 100.8615659 100.7879590
  54.3092734  99.6922804 101.7484935  48.1054156  96.4104417  96.9300487
  47.1804653  96.2780631  97.1378179  48.3538570  97.1898636  97.4270429
  58.0538819  92.4773161  98.5761220  57.1455696  92.4088569  98.2819981
  58.0026414  92.9545105  99.4043045  51.8755563  93.9531299  90.2144619
  51.7555188  94.3988350  91.0530099  51.1808151  94.3016617  89.6558157
  45.4662967  96.0537691  97.7644276  45.5955349  96.3072170  98.6783688
  44.7860419  96.6465399  97.4448931  49.6362455 106.7234941  93.8634750
  49.5586484 107.6742766  93.9423231  49.0324098 106.3780813  94.5209676
  52.1279684  93.8962806 106.5196117  51.3513018  94.4556726 106.5098982
  52.7670247  94.3819589 107.0410987  59.9200465  90.6789599 100.3539094
  59.2774845  90.9722132  99.7078888  59.4155394  90.5642519 101.1592290
  57.5740629  94.4252772  91.0424953  58.4858485  94.6580159  90.8672650
  57.0650276  95.0089816  90.4800032  50.3826057  96.7048259 106.0814084
  51.1240741  97.2433303 105.8048908  49.6763042  97.3314548 106.2385636
  55.8581396  98.8477400 104.6786246  56.2664752  98.4059810 103.9340878
  55.1358658  98.2730027 104.9320438  52.2112466  93.7850007 102.0519802
  53.0573662  94.2089420 102.1954451  52.1511104  93.1283631 102.7458366
  56.1810211  99.4078591  98.4338534  55.5519073  99.5724305  97.7314602
  55.7935873  99.8220200  99.2049498  60.0599443 100.3433028  95.7882898
  59.3750481 100.7231930  95.2379931  60.1443292 100.9528355  96.5214846
  55.3611912  91.4454375 103.7100976  55.1172844  92.1996436 103.1735252
  55.6371842  91.8239723 104.5448223  57.3150375  97.9892987 102.3878242
  57.5267270  98.6324747 101.7112623  57.2680123  97.1555304 101.9200172
  54.9176603  90.6010808  99.2914814  54.0561083  90.8992062  99.5831551
  54.9439038  90.8181207  98.3595846  51.7338173  99.1452999  95.6988620
  52.1976518  99.4240702  94.9093242  51.4694971  98.2436443  95.5161710
  48.6262254  98.6924480  98.6368383  49.1963611  99.1211749  97.9985867
  49.2170366  98.4107065  99.3352568  50.6707059  95.2676151  92.5078185
  51.3731102  95.7197195  92.9752111  50.3387687  94.6259970  93.1358078
  49.1187420  93.8587908 106.8829394  48.4886081  94.5404189 107.1164791
  49.0123508  93.7470989 105.9382532  44.4132393  93.5259704  97.8095318
  43.6231447  93.7817232  97.3335429  44.9043640  94.3408042  97.9147359
  58.4296202 100.8664943 100.5600599  59.2513646 100.4645130 100.2783281
  58.4258605 100.7633177 101.5116715  46.3647138  93.8904283  94.7678795
  45.5678302  94.0022977  95.2862291  46.1372730  94.2290935  93.9019685
  52.1952806 100.4148986 102.7161310  52.2597238 100.8769393 103.5519481
  51.4863730  99.7846351 102.8443619  42.6970096  93.7790194 100.2410309
  42.9478134  94.6637204 100.5067885  43.2329644  93.5994796  99.4685401
  66.5202196  97.2103691  96.9085571  65.7665904  96.6411089  96.7529575
  66.6549737  97.1766356  97.8556205  51.9100824 102.0817094  92.5840290
  51.7746498 102.9268629  93.0125138  52.4510636 102.2836371  91.8206224
  48.3968163  88.1608673 109.2454645  48.0035109  87.6074872 109.9202289
  49.2134304  88.4719252 109.6361163  45.3630221  99.5992532  93.1568215
  45.8754742 100.3935782  93.3073780  46.0152934  98.9018822  93.0901816
  47.1725106 102.7158288  95.2390968  47.3491734 103.6376253  95.0511952
  47.9681939 102.4016707  95.6685348  51.3136124  89.5766553 106.8374902
  52.0545838  90.1773706 106.7579364  51.5454047  88.8344190 106.2792944
  46.4577462  94.7622920 105.1153131  46.3430977  93.8608177 105.4160230
  45.6021980  95.0086617 104.7637948  48.2956421 104.2336462 101.2401310
  48.8463846 104.1053525 100.4678304  47.4567897 104.5331351 100.8896203
  52.0923592 100.4987590 105.5845542  52.6251929  99.7375878 105.3544850
  51.5637673 100.2061241 106.3269696  55.2593287  85.6047656 101.1139183
  54.9157557  86.4949297 101.0378294  55.6272250  85.4149313 100.2508768
  43.3279138  97.9281186  93.9327785  44.1654360  98.3378194  93.7161493
  43.5057405  96.9880628  93.9027979  55.2243570  95.5956267  89.6211618
  54.7090193  96.3660871  89.8600006  54.9520878  94.9221403  90.2444680
  52.8090681  90.4405967  94.6796857  51.9532277  90.0512818  94.5002496
  53.2217633  90.5197928  93.8196642  54.3389828  87.9752311  99.0788417
  53.8354623  87.9382446  98.2656222  54.6320434  88.8845053  99.1385073
  50.5832713  88.0591040  98.0854598  51.4485710  87.8633849  97.7260488
  50.6510222  87.8301392  99.0123955  60.1977844  98.3488621  91.5564792
  59.4207287  98.0099781  91.1119954  60.8769325  98.3541244  90.8819757
  55.0129873  93.4683359  91.4471400  54.7080009  93.7829508  92.2981543
  55.9660315  93.5464779  91.4898733  53.4576305  99.6273582  93.0964354
  52.9297666  98.8926342  92.7837591  52.9563808 100.4048258  92.8504322
  58.4369151  97.8222603  98.2131400  57.7792825  98.5121864  98.3011529
  59.2409550  98.2119034  98.5565386  48.1895032  90.2893248  95.4570965
  48.7638784  90.0668430  94.7244158  48.7766015  90.3581943  96.2099566
  57.2474610  96.1766975  96.2635342  57.7606491  96.8096967  96.7657051
  57.8975834  95.5768171  95.8978702  48.5164620  92.3197709  89.4766850
  47.6801932  92.6572396  89.7976125  48.3769389  92.1846689  88.5393987
  50.4917700  87.1634497  94.1846035  49.8382113  86.8483514  93.5602649
  50.4498174  86.5410238  94.9105857  51.6028905  97.4453792  86.0999327
  50.6955967  97.2143046  86.2990476  52.0999937  96.6491412  86.2873308
  54.5096984 106.1551299  89.0196013  53.8358683 106.4582996  89.6280971
  54.8962806 106.9580380  88.6701470  53.7255441  93.6516431  98.5093682
  52.8078002  93.8731378  98.3515370  54.1415584  93.7262741  97.6505390
  54.5090488  95.0507846  93.6396362  55.2562307  95.5629244  93.3303484
  54.7782078  94.7291899  94.5000756  52.7817138  97.5466387  90.6223317
  51.8728358  97.2625420  90.7195786  52.8112222  97.9665466  89.7626624
  58.0136406 101.1572977  94.3914484  57.5598733 100.3163887  94.4479675
  57.3830373 101.7934375  94.7289264  56.9569325  92.0864963  95.6215152
  56.2192082  91.5742349  95.9525394  57.2096099  91.6465344  94.8098429
  56.4569345 102.9949473  95.3264302  56.7492320 103.5554530  94.6076668
  56.9667966 103.2878034  96.0817462  57.0580953  84.8641215  96.2156921
  57.3639830  84.0038578  95.9282836  57.7833558  85.4558835  96.0155915
  43.3505309  95.2671901  94.6038519  43.1529709  94.6741262  93.8789585
  42.7951973  94.9624111  95.3214458  51.3302033  95.1595008  96.7233112
  51.3850642  94.2068844  96.6475589  50.5193235  95.3154447  97.2074410
  52.4793226  99.0875131  87.9611395  52.0412656  98.3710990  87.5017033
  53.2203667  99.3151246  87.3996487  49.2694392  93.7772068  94.4823491
  48.4562258  94.0766238  94.8888683  49.7653387  93.3827756  95.1997973
  51.4202970 103.7729824  96.4157756  51.3779149 103.9990671  95.4866288
  52.3365669 103.5393199  96.5643557  54.8668604  94.2413892 103.3138385
  55.2217992  94.4685365 104.1732851  55.5140735  94.5732269 102.6915640
  60.5966341  97.3632328  94.0187714  60.4584240  97.5533924  93.0908903
  60.2402560  98.1251711  94.4755765  48.7608467  91.3490423 100.0984726
  49.4007847  91.2079182  99.4007689  47.9285998  91.0624936  99.7223328
  60.6235721  99.4308855  99.0298985  61.0572227  99.3384144  99.8782039
  61.3367301  99.4066355  98.3919001  49.5368771 100.6492853  96.2119718
  50.3309370 100.1543174  96.0102293  48.8260464 100.1210717  95.8487424
  54.3563616 103.0310949 100.5632086  54.4100638 103.6001885 101.3309802
  53.4878397 103.2012834 100.1986123  45.8451535  94.7935935  92.2879471
  44.9149123  94.7320391  92.5049433  45.9409007  94.2711888  91.4916112
  45.7637084  91.3190748  94.8757713  46.0243901  92.2336081  94.7666873
  46.5854256  90.8515191  95.0254326  47.2362009  92.7328505 102.0456537
  47.9085062  92.5245867 101.3969186  46.4091796  92.5350591 101.6061770
  61.4851270  99.4732556 101.5631871  61.6787160 100.3778366 101.8091146
  61.3851888  99.0139975 102.3970456  53.1387581  89.3590446 104.0622198
  52.4915496  90.0580396 103.9686675  53.9088596  89.7926590 104.4298446
  53.3151715  97.1971211 102.1219018  54.2443775  97.3482371 101.9487985
  52.8942745  97.2855232 101.2667664  52.1140047 101.2221875  99.8917555
  51.9751133 100.8540660 100.7643494  51.3254643 101.7369515  99.7201513
  52.7088199 106.3230972  91.2343092  52.8839955 105.8519015  92.0488715
  52.0220987 106.9496738  91.4624353  53.6645262 100.6003478  97.2806393
  53.3295095 100.5604248  98.1764043  53.1649208  99.9348194  96.8076803
  47.6389506  96.0071108 102.8058974  47.5009304  95.2751347 103.4070513
  48.5494430  95.9180008 102.5243162  56.6004454  97.9459512  87.5543453
  55.9833625  97.2206341  87.4576506  56.1320942  98.7068873  87.2110527
  50.2671807  95.7191068 102.2942654  50.9771425  95.0784260 102.2529272
  50.2241115  95.9703962 103.2168835  48.9800741  92.7056285 104.1138294
  48.4438098  92.2547024 104.7659890  48.3917449  92.8402194 103.3708758
  47.2749284 109.4720335  98.0082952  47.5145883 110.1038859  98.6861971
  46.4318481 109.1208375  98.2948311  48.3903000  92.1644937  86.6764757
  47.5132466  92.0433738  86.3127004  48.8660753  91.3731015  86.4243646
  58.2575993 100.6198005 103.4463213  57.3702772 100.2823927 103.5689612
  58.8274544  99.8881036 103.6831978  39.9105140  96.9522097  96.7706264
  40.5976180  96.6383827  96.1827280  39.7553269  97.8563461  96.4973516
  44.7139862  91.8412293 101.1991288  44.6298051  91.2337963 100.4641698
  43.8922569  92.3321311 101.2000784  51.7877146 105.2799457 100.4124456
  51.7147318 106.0854429 100.9243761  51.3454539 105.4791423  99.5872478
  51.5766926 104.5171227  93.9227278  50.7934448 105.0592907  94.0165502
  52.2759671 105.0345207  94.3221519  54.8863576  90.3265857  96.5661483
  55.3832276  89.5735819  96.2462553  54.1150557  90.3630173  96.0004692
  62.7393333  96.0306222  98.2079775  62.7283210  96.9130938  97.8373708
  61.8710713  95.6777773  98.0134312  55.9693357  99.0837544  94.1399906
  55.0349635  99.2039006  93.9704611  56.1470025  98.1810011  93.8759916
  51.4698545  92.4683240  96.2933168  51.0996332  91.9154280  96.9814073
  51.9657637  91.8641373  95.7408168  59.3565908  94.9254863  94.6749941
  59.8226360  95.7582855  94.6010243  59.8073409  94.4599845  95.3795199
  49.2987743 102.9280735 103.3888186  49.9997203 103.5617218 103.5417580
  48.8282858 103.2695466 102.6283825  57.4242139 101.2698684  91.6736093
  57.7001983 101.1555279  92.5829967  56.5546638 100.8716169  91.6348266
  57.3282571  87.2935450  98.7140842  56.4145651  87.5239677  98.8823049
  57.7575672  87.3773894  99.5654874  57.0989029  95.4825342 101.2140736
  56.4460479  95.7301250 100.5593189  57.4769409  94.6689480 100.8803213
  54.0596203 105.5185035  95.3168906  54.2418598 104.7006691  95.7796659
  54.8829189 105.7352728  94.8793796  54.3938369 104.4453220  92.5783955
  54.9226135 103.9345675  91.9654117  54.6566588 104.1295751  93.4429488
  53.1476602  96.2245153 107.7006773  52.4717239  96.1239282 108.3709148
  53.9704236  96.0684367 108.1642770  44.8955461 102.4617090 100.3219288
  45.4808898 101.7160778 100.4547192  44.6980300 102.7721046 101.2055952
  47.7494117 105.4968337  95.3381731  47.0804492 105.9814465  94.8545771
  47.6106986 105.7437558  96.2525109  39.4873116  95.0322690  99.0423731
  39.5257216  94.4986281  99.8360850  38.9813409  94.5057895  98.4234709
  46.8663878  89.8787230 102.5386274  46.9305205  90.7402061 102.1263671
  46.8030999  89.2661232 101.8058632  46.3416151  91.9510363 106.1859308
  46.9688190  91.5687440 106.7996832  45.4844070  91.7324565 106.5515000
  43.1181694  93.7586792  92.1177663  43.4135135  92.8497470  92.0644717
  42.2169729  93.7374531  91.7958665  55.0267772 105.4794056  98.9228071
  54.9018912 104.6783796  98.4139017  55.6846864 105.9740249  98.4342041
  46.6475941  91.8342789  98.1005211  45.9262526  92.4478756  97.9612685
  47.4369196  92.3700553  98.0221857  57.0902681 103.2803076 100.5507621
  56.1433016 103.1608427 100.4785948  57.4385454 102.3925574 100.6333883
  49.4502254  89.1697215 104.3745863  49.9736656  89.4159512 105.1372172
  49.2314587  90.0017250 103.9549001  44.8469535  91.4400890  92.2416988
  44.5182241  90.5598269  92.0592094  45.2008906  91.3848558  93.1293377
  54.0949114 103.0755792  96.7511974  53.9474077 102.1472500  96.9319544
  54.9202608 103.0975883  96.2669049  47.9611358  91.7273859  92.6092466
  48.3007431  92.2559781  91.8871074  48.4083479  92.0654266  93.3851032
  57.6983236 103.8984351  97.8376846  58.6229783 103.6927212  97.7001297
  57.5298539 103.6500752  98.7466188  50.6554799  90.1110910 102.0595534
  50.3151620  89.3118723 102.4616214  49.9493806  90.4112621 101.4872367
  51.3071271  87.1960223 100.5122857  52.1297340  86.7220701 100.3901747
  51.5509335  87.9750706 101.0121543  49.9479506  90.2248481  90.8085758
  50.6687868  90.6029734  90.3049475  49.3244810  90.9437358  90.9120736
  54.0910628  90.9293630  91.7444091  54.3074243  91.8118268  91.4432919
  53.6104696  90.5379843  91.0149733  48.8309850  93.8879343  98.3214835
  48.6854431  94.2019646  99.2139117  48.3535053  94.5064244  97.7685734
  50.6906233  90.8781891  98.3695725  50.6767801  89.9822985  98.0328023
  51.4078661  90.8852555  99.0034011  52.5432363  91.3119231 100.4148852
  52.2850141  92.2336302 100.4133183  52.0117404  90.9149666 101.1049316
  57.4878552 104.4170019  93.1938938  57.6615430 103.8516441  92.4412790
  57.9807443 105.2170913  93.0118428  43.3055512  96.4284688 101.2602497
  42.7608980  97.2044496 101.3922771  44.1834862  96.7755492 101.1021618
  50.0943129  89.7596272  93.6383295  50.2159040  88.8312918  93.8374183
  49.8045171  89.7734958  92.7261610  52.9634319  87.4451182  96.7750015
  52.9856016  87.5090515  95.8201994  53.3802378  86.6055691  96.9690521
  63.3417943  97.1806442  94.8129237  63.7849089  96.4313767  94.4148361
  62.4644454  97.1716578  94.4302969  58.4753725 103.7336783  90.2935836
  59.1704629 104.3543476  90.5123151  58.8176875 102.8832134  90.5688214
  44.0921534  95.5554584 104.1532653  43.3503270  95.7037219 104.7397284
  43.7714278  95.8162850 103.2899403  60.3745148 101.1836489  91.8223167
  60.8996472 101.5223761  91.0972487  60.2867500 100.2483504  91.6386301
  52.0585809 107.2508472  96.1818420  51.6190799 106.7584850  96.8751277
  52.8093925 106.7081439  95.9410495  44.5378148 103.4420013  96.1843048
  45.3636167 103.1423785  95.8041692  44.1872200 102.6727635  96.6332837
  49.5059681 102.7946481  98.2540722  48.8839690 102.1317186  97.9542949
  50.1764548 102.8207613  97.5714369  42.7386753 101.3606339  97.1431982
  41.9018661 100.9328513  96.9615983  42.7110398 101.5538782  98.0802773
  49.5784208  91.2728269 107.8473228  49.6272364  92.1490392 107.4650997
  50.1206722  90.7305662 107.2744871  49.0673188 101.3450404  91.7299182
  49.2161308 102.0285869  91.0765855  49.8739631 101.3255494  92.2448638
  57.4740691  94.6492787 105.7566400  58.3750554  94.5099251 105.4650398
  57.5488666  94.8147241 106.6964577  51.8083497  92.0259641 104.6019586
  50.9386806  92.3193207 104.3302175  52.0442977  92.6100086 105.3226850
  62.8850808  98.6511680  97.2051685  63.7197699  99.0901484  97.3689245
  63.0209937  98.1750333  96.3859931  59.9342314  96.2091415 103.1529173
  60.4096436  96.4019061 102.3448024  59.0107879  96.2650601 102.9072556
  46.8225821  97.3715582  92.7360251  46.5771863  96.4677912  92.9340461
  46.9921735  97.3732732  91.7939729  54.5122530  88.2439258 102.1185007
  55.0304474  88.9800285 101.7931495  54.1577663  88.5503252 102.9531766
  46.0921468  93.1043939  90.2346413  45.3990713  93.1788294  89.5786449
  45.8473220  92.3404283  90.7567929  54.7635125  84.6639541  97.6385903
  55.0436878  83.9962730  98.2646330  55.5485732  84.8568636  97.1260567
  52.5668593 103.8398535  89.2010930  51.9942560 104.4588722  88.7481401
  53.1401387 104.3897896  89.7350852  58.6343983  93.0857175 101.3857478
  59.5861406  93.1855272 101.4069702  58.4647433  92.2935443 101.8955563
  56.6558362  90.1712758 101.5716879  56.0608295  90.4517771 100.8763368
  56.3708059  90.6606659 102.3433620  55.7865853 104.1235685  90.3319512
  56.7196526 104.0581246  90.5352387  55.6989066 104.9591952  89.8734045
  58.4153870 103.4401555  87.2923459  58.3367501 103.1061419  88.1859217
  59.2363536 103.9323323  87.2914932  61.1132061  96.3063294 100.4999778
  61.0808381  95.3679295 100.6859462  61.7232684  96.3847331  99.7665603
  52.9515392  95.1759347  86.5426982  53.8974496  95.0465556  86.6115400
  52.5729637  94.4374009  87.0196410  61.2626549  93.0974338 100.5458061
  60.7465598  92.3132795 100.3587990  62.1466498  92.7693055 100.7104581
  58.9237276  86.8415353  96.5053874  58.7262097  86.5330442  97.3897206
  59.5336982  87.5676992  96.6351804  66.9308611  97.3679301  99.6405815
  67.6611999  97.1064589 100.2013518  66.3215556  96.6308023  99.6807883
  65.0123908  95.5087164 100.2380266  64.2857071  95.3743129  99.6296758
  64.5971195  95.8163992 101.0436984  51.1358309  93.1009324  86.4781867
  50.2289764  92.8042437  86.5544581  51.4134290  92.8039142  85.6116154
  42.0536249  94.4215687  96.9280914  41.7339033  93.5680995  96.6355288
  41.5069677  94.6364265  97.6838881  45.8316157  97.1378128 100.6450420
  46.0502166  98.0695236 100.6638454  46.2441931  96.7786103 101.4305224
  52.7520374  87.6446214  92.6326109  51.9421103  87.2993299  93.0081355
  53.4404791  87.3353757  93.2213720  54.6810923  86.7224260  94.2550405
  55.2341961  87.1419714  94.9140428  54.9181009  85.7960008  94.2973361
  50.7044022  92.7111334 110.0353169  50.6040749  93.6605691 109.9665260
  50.4865564  92.3829573 109.1629239  49.9057093  89.9596259  86.6193847
  50.7676257  90.2851157  86.8789664  50.0907438  89.1727755  86.1066912
  41.9224509  98.0418599  98.8974035  41.2287981  97.6272552  98.3843990
  42.6697500  98.0839135  98.3007454  58.0589730  88.8324785  93.7629070
  57.4788399  89.4909590  93.3807122  57.7925663  88.0102130  93.3516487
  56.5093296  88.2329843  95.9650390  57.0093075  88.3446378  95.1564709
  57.1528904  87.9290896  96.6051198  50.5675292  96.1408473 108.8518231
  50.0842374  96.9408833 109.0582120  50.6536231  96.1516418 107.8985675
  43.8361252  97.9736853  96.7740050  43.8131940  98.0724540  95.8221933
  44.1461888  98.8202003  97.0957216  46.4948630 100.0313008 100.8886665
  47.4491883  99.9996950 100.8216596  46.2961153  99.5703631 101.7036891
  47.0848012  98.6014124 103.4557462  47.9040901  99.0958202 103.4792300
  47.3584819  97.6846092 103.4275030  56.8414608  90.9924876  92.8185418
  55.9540463  91.2774527  92.6005613  57.2568597  90.8318639  91.9712695
  60.1929144  91.0171397  96.5339757  60.9689534  91.5067849  96.8064374
  59.4677278  91.4429451  96.9911627  62.6301703  91.7299016  97.5913698
  63.2246193  91.4894752  96.8807006  62.7028286  91.0106147  98.2187234
  44.8498858 105.5732627  97.9056862  44.7153326 104.8133028  97.3394861
  44.4330921 106.2973527  97.4385651  55.9857821 100.7569551  86.9133438
  56.6893671 100.9619553  87.5291093  55.2620470 101.3246312  87.1782521
  56.8155632  96.5079412  93.0335708  56.7590833  96.9647963  92.1943340
  57.3683974  95.7470096  92.8558551  60.6260438  92.2969144  93.8585827
  60.3697372  91.8965779  94.6894035  60.0013306  93.0112938  93.7335967
  64.9372775  95.0365217  96.3657119  64.3772333  95.1058406  97.1388681
  64.3316279  94.8606202  95.6456615  48.0067984 106.4701944  98.1175305
  47.8900368 107.4147377  98.0153995  47.1860430 106.1675506  98.5061104
  57.8944519 101.1952080  88.9631898  58.7290123 100.7633278  88.7809373
  57.7328862 101.0234093  89.8908792  57.5490411  97.6984193  90.3288237
  57.4939215  97.5328464  89.3876681  56.9236466  98.4060226  90.4850427
  42.3382926  92.9352257 104.1549659  42.9841790  92.4251211 104.6436884
  42.1300077  93.6720939 104.7293085  50.8586536  87.1992302  89.9073556
  50.8465206  88.1434142  90.0641826  51.7509958  87.0162447  89.6133017
  49.0322498 107.1230206 101.3331234  49.9349745 107.1553816 101.6497728
  48.8059868 106.1930657 101.3477569  50.7876100 105.8761192  97.9941312
  49.8371731 105.8763054  97.8805684  51.0908587 105.1293927  97.4777347
  54.6738656  83.7935079  94.1619492  53.9071052  83.2393565  94.3076175
  55.0849361  83.8656947  95.0233644  46.6780417  90.0819875 108.2524674
  47.5411878  89.7256679 108.4627998  46.1045828  89.7433769 108.9400078
  59.1905316 113.5184635  94.9845490  58.6270181 113.4274572  94.2161778
  59.0757711 112.6984540  95.4647983  64.7704875 117.1855603  90.2959955
  64.1192854 117.7709683  89.9093969  65.5649237 117.7161798  90.3554993
  58.6960502 114.2744740  90.6947089  59.4691378 113.7273727  90.5559965
  59.0485901 115.1388990  90.9061551  61.0326780 110.4337406  88.3265539
  61.2852300 109.9118928  87.5649002  60.0951339 110.2703552  88.4292223
  66.2480140 114.8746035  90.8328939  65.6125973 114.9480662  91.5449844
  65.9177546 115.4639634  90.1548019  60.7523068 112.3365512  90.5289914
  60.6359326 111.6610416  91.1970999  60.8625328 111.8497886  89.7122067
  63.0954609 111.7975659  94.2336604  62.7312816 111.2706280  94.9449525
  63.9521725 111.4074128  94.0603089  62.7360096 106.8265559  89.2297952
  62.9034499 107.6945796  89.5968423  62.5457265 106.9892841  88.3059241
  62.7149317 109.2823217  90.2144619  62.5948942 109.7280267  91.0530099
  62.0201905 109.6308534  89.6558157  68.4134383 109.7544690  91.0424953
  69.3252239 109.9872077  90.8672650  67.9044030 110.3381734  90.4800032
  61.5100813 110.5968069  92.5078185  62.2124857 111.0489112  92.9752111
  61.1781442 109.9551888  93.1358078  55.2526147 108.8551621  97.8095318
  54.4625201 109.1109150  97.3335429  55.7437395 109.6699959  97.9147359
  57.2040893 109.2196201  94.7678795  56.4072056 109.3314895  95.2862291
  56.9766485 109.5582853  93.9019685  56.2023975 114.9284449  93.1568215
  56.7148496 115.7227700  93.3073780  56.8546688 114.2310740  93.0901816
  54.1672892 113.2573104  93.9327785  55.0048114 113.6670112  93.7161493
  54.3451160 112.3172546  93.9027979  66.0637324 110.9248184  89.6211618
  65.5483948 111.6952789  89.8600006  65.7914633 110.2513320  90.2444680
  63.6484435 105.7697885  94.6796857  62.7926032 105.3804735  94.5002496
  64.0611387 105.8489846  93.8196642  61.4226468 103.3882958  98.0854598
  62.2879465 103.1925767  97.7260488  61.4903977 103.1593310  99.0123955
  65.8523628 108.7975276  91.4471400  65.5473763 109.1121426  92.2981543
  66.8054070 108.8756696  91.4898733  64.2970059 114.9565500  93.0964354
  63.7691421 114.2218259  92.7837591  63.7957562 115.7340176  92.8504322
  59.0288787 105.6185166  95.4570965  59.6032539 105.3960347  94.7244158
  59.6159769 105.6873861  96.2099566  59.3558374 107.6489627  89.4766850
  58.5195686 107.9864314  89.7976125  59.2163144 107.5138607  88.5393987
  61.3311455 102.4926415  94.1846035  60.6775867 102.1775432  93.5602649
  61.2891929 101.8702155  94.9105857  62.4422660 112.7745710  86.0999327
  61.5349721 112.5434963  86.2990476  62.9393692 111.9783329  86.2873308
  65.3484243 110.3799764  93.6396362  66.0956062 110.8921161  93.3303484
  65.6175832 110.0583817  94.5000756  63.6210893 112.8758305  90.6223317
  62.7122112 112.5917338  90.7195786  63.6505977 113.2957383  89.7626624
  67.7963080 107.4156880  95.6215152  67.0585837 106.9034267  95.9525394
  68.0489854 106.9757262  94.8098429  67.8974707 100.1933132  96.2156921
  68.2033584  99.3330496  95.9282836  68.6227312 100.7850753  96.0155915
  54.1899063 110.5963819  94.6038519  53.9923463 110.0033180  93.8789585
  53.6345727 110.2916029  95.3214458  63.3186981 114.4167049  87.9611395
  62.8806411 113.7002907  87.5017033  64.0597422 114.6443163  87.3996487
  60.1088147 109.1063985  94.4823491  59.2956012 109.4058156  94.8888683
  60.6047141 108.7119674  95.1997973  56.6845289 110.1227853  92.2879471
  55.7542877 110.0612308  92.5049433  56.7802761 109.6003806  91.4916112
  56.6030838 106.6482666  94.8757713  56.8637655 107.5627999  94.7666873
  57.4248010 106.1807108  95.0254326  67.4398208 113.2751430  87.5543453
  66.8227379 112.5498258  87.4576506  66.9714697 114.0360790  87.2110527
  59.2296754 107.4936854  86.6764757  58.3526221 107.3725655  86.3127004
  59.7054507 106.7022933  86.4243646  50.7498894 112.2814014  96.7706264
  51.4369934 111.9675744  96.1827280  50.5947023 113.1855379  96.4973516
  55.5533617 107.1704211 101.1991288  55.4691805 106.5629880 100.4641698
  54.7316323 107.6613229 101.2000784  65.7257330 105.6557774  96.5661483
  66.2226030 104.9027737  96.2462553  64.9544312 105.6922091  96.0004692
  62.3092299 107.7975157  96.2933168  61.9390087 107.2446198  96.9814073
  62.8051392 107.1933291  95.7408168  50.3266871 110.3614608  99.0423731
  50.3650970 109.8278198  99.8360850  49.8207163 109.8349813  98.4234709
  53.9575448 109.0878710  92.1177663  54.2528889 108.1789388  92.0644717
  53.0563484 109.0666449  91.7958665  57.4869695 107.1634706  98.1005211
  56.7656281 107.7770674  97.9612685  58.2762951 107.6992471  98.0221857
  55.6863290 106.7692807  92.2416988  55.3575996 105.8890186  92.0592094
  56.0402660 106.7140476  93.1293377  58.8005113 107.0565777  92.6092466
  59.1401185 107.5851698  91.8871074  59.2477233 107.3946183  93.3851032
  60.7873260 105.5540399  90.8085758  61.5081623 105.9321652  90.3049475
  60.1638564 106.2729276  90.9120736  64.9304383 106.2585548  91.7444091
  65.1467997 107.1410186  91.4432919  64.4498450 105.8671761  91.0149733
  61.5299987 106.2073809  98.3695725  61.5161556 105.3114902  98.0328023
  62.2472415 106.2144473  99.0034011  60.9336883 105.0888189  93.6383295
  61.0552794 104.1604835  93.8374183  60.6438925 105.1026875  92.7261610
  63.8028074 102.7743100  96.7750015  63.8249770 102.8382433  95.8201994
  64.2196133 101.9347608  96.9690521  59.9066942 116.6742322  91.7299182
  60.0555062 117.3577786  91.0765855  60.7133386 116.6547412  92.2448638
  57.6619575 112.7007500  92.7360251  57.4165617 111.7969830  92.9340461
  57.8315490 112.7024650  91.7939729  56.9315223 108.4335857  90.2346413
  56.2384468 108.5080212  89.5786449  56.6866974 107.6696201  90.7567929
  65.6028879  99.9931458  97.6385903  65.8830633  99.3254648  98.2646330
  66.3879486 100.1860554  97.1260567  63.4062348 119.1690452  89.2010930
  62.8336315 119.7880639  88.7481401  63.9795141 119.7189814  89.7350852
  69.2547624 118.7693473  87.2923459  69.1761256 118.4353336  88.1859217
  70.0757291 119.2615241  87.2914932  63.7909146 110.5051265  86.5426982
  64.7368251 110.3757473  86.6115400  63.4123391 109.7665927  87.0196410
  69.7631031 102.1707271  96.5053874  69.5655852 101.8622359  97.3897206
  70.3730736 102.8968910  96.6351804  61.9752063 108.4301241  86.4781867
  61.0683519 108.1334354  86.5544581  62.2528044 108.1331060  85.6116154
  52.8930004 109.7507605  96.9280914  52.5732788 108.8972913  96.6355288
  52.3463432 109.9656183  97.6838881  63.5914129 102.9738131  92.6326109
  62.7814857 102.6285216  93.0081355  64.2798546 102.6645675  93.2213720
  65.5204677 102.0516178  94.2550405  66.0735716 102.4711631  94.9140428
  65.7574764 101.1251926  94.2973361  60.7450848 105.2888177  86.6193847
  61.6070012 105.6143075  86.8789664  60.9301192 104.5019673  86.1066912
  52.7618264 113.3710516  98.8974035  52.0681735 112.9564469  98.3843990
  53.5091255 113.4131053  98.3007454  68.8983484 104.1616703  93.7629070
  68.3182153 104.8201507  93.3807122  68.6319417 103.3394048  93.3516487
  67.3487051 103.5621761  95.9650390  67.8486829 103.6738295  95.1564709
  67.9922659 103.2582814  96.6051198  54.6755006 113.3028770  96.7740050
  54.6525694 113.4016457  95.8221933  54.9855643 114.1493921  97.0957216
  67.6808362 106.3216794  92.8185418  66.7934217 106.6066444  92.6005613
  68.0962351 106.1610557  91.9712695  66.8251576 116.0861468  86.9133438
  67.5287426 116.2911471  87.5291093  66.1014225 116.6538230  87.1782521
  67.6549386 111.8371329  93.0335708  67.5984588 112.2939881  92.1943340
  68.2077729 111.0762014  92.8558551  71.4654192 107.6261061  93.8585827
  71.2091126 107.2257697  94.6894035  70.8407060 108.3404855  93.7335967
  68.7338273 116.5243997  88.9631898  69.5683877 116.0925196  88.7809373
  68.5722616 116.3526011  89.8908792  68.3884165 113.0276111  90.3288237
  68.3332969 112.8620382  89.3876681  67.7630221 113.7352144  90.4850427
  61.6980291 102.5284220  89.9073556  61.6858961 103.4726060  90.0641826
  62.5903713 102.3454365  89.6133017  65.5132410  99.1226996  94.1619492
  64.7464806  98.5685483  94.3076175  65.9243115  99.1948865  95.0233644
  10.5736103  17.5458137  77.0205262   9.9224083  18.1312218  76.6339276
  11.3680466  18.0764332  77.0800299   4.4991731  14.6347274  77.4192396
   5.2722607  14.0876262  77.2805272   4.8517129  15.4991524  77.6306857
  12.0511368  15.2348569  77.5574246  11.4157201  15.3083196  78.2695151
  11.7208775  15.8242168  76.8793325   6.2787438  22.4129393  80.5880057
   6.2011468  23.3637218  80.6668537   5.6749082  22.0675265  81.2454983
  14.2165612  10.1147224  77.7670260  15.1283468  10.3474611  77.5917957
  13.7075259  10.6984268  77.2045338  16.7024426  16.0327480  82.5128205
  16.0175464  16.4126382  81.9625238  16.7868276  16.6422807  83.2460153
   8.3763156  14.8347451  82.4233926   8.8401502  15.1135154  81.6338549
   8.1119954  13.9330895  82.2407017  23.1627179  12.8998143  83.6330877
  22.4090887  12.3305541  83.4774882  23.2974720  12.8660808  84.5801512
   8.5525807  17.7711546  79.3085596   8.4171482  18.6163081  79.7370444
   9.0935619  17.9730823  78.5451530   3.8150089  18.4052740  81.9636275
   3.9916717  19.3270705  81.7757259   4.6106922  18.0911159  82.3930655
  11.8668553  11.2850719  76.3456925  11.3515177  12.0555323  76.5845312
  11.5945862  10.6115855  76.9689987  16.8402827  14.0383073  78.2810099
  16.0632270  13.6994233  77.8365261  17.5194308  14.0435696  77.6065064
  10.1001288  15.3168034  79.8209660   9.5722650  14.5820794  79.5082898
   9.5988791  16.0942710  79.5749629  15.0794134  13.5117054  84.9376707
  14.4217809  14.2016316  85.0256835  15.8834533  13.9013486  85.2810693
  13.8899593  11.8661427  82.9880648  14.4031475  12.4991419  83.4902358
  14.5400817  11.2662623  82.6224008   8.2453888  13.1348244  72.8244633
   7.3380950  12.9037498  73.0235782   8.7424920  12.3385863  73.0118615
  11.1521967  21.8445751  75.7441319  10.4783666  22.1477448  76.3526277
  11.5387789  22.6474832  75.3946776  11.1515472  10.7402298  80.3641669
  11.8987291  11.2523696  80.0548791  11.4207061  10.4186351  81.2246063
   9.4242122  13.2360839  77.3468623   8.5153341  12.9519872  77.4441093
   9.4537206  13.6559918  76.4871930  14.6561389  16.8467429  81.1159791
  14.2023716  16.0058338  81.1724981  14.0255356  17.4828827  81.4534571
  13.0994328  18.6843925  82.0509609  13.3917303  19.2448982  81.3321975
  13.6092949  18.9772486  82.8062768   9.1218210  14.7769583  74.6856702
   8.6837640  14.0605442  74.2262339   9.8628650  15.0045698  74.1241793
   8.0627954  19.4624276  83.1403062   8.0204132  19.6885123  82.2111594
   8.9790653  19.2287651  83.2888863  17.2391324  13.0526780  80.7433020
  17.1009223  13.2428376  79.8154210  16.8827543  13.8146163  81.2001072
  17.2660704  15.1203307  85.7544292  17.6997211  15.0278596  86.6027346
  17.9792285  15.0960807  85.1164308   6.1793754  16.3387305  82.9365025
   6.9734353  15.8437625  82.7347600   5.4685447  15.8105168  82.5732731
   9.3513182  22.0125424  77.9588399   9.5264938  21.5413467  78.7734021
   8.6645970  22.6391190  78.1869659  13.2429437  13.6353964  74.2788760
  12.6258608  12.9100793  74.1821812  12.7745926  14.3963325  73.9355834
   3.9174268  25.1614787  84.7328259   4.1570866  25.7933311  85.4107277
   3.0743464  24.8102827  85.0193618   8.2191909  20.2065679  80.6472584
   7.4359431  20.7487359  80.7410809   8.9184654  20.7239659  81.0466825
  19.3818317  11.7200674  84.9325081  19.3708193  12.6025389  84.5619014
  18.5135696  11.3672225  84.7379618  12.6118340  14.7731996  80.8645213
  11.6774619  14.8933458  80.6949917  12.7895008  13.8704463  80.6005223
  15.9990891  10.6149315  81.3995247  16.4651344  11.4477307  81.3255550
  16.4498392  10.1494297  82.1040506  14.0667122  16.9593136  78.3981399
  14.3426966  16.8449731  79.3075273  13.1971621  16.5610621  78.3593572
  10.7021186  21.2079487  82.0414213  10.8843581  20.3901143  82.5041965
  11.5254172  21.4247179  81.6039103  11.0363352  20.1347672  79.3029261
  11.5651118  19.6240127  78.6899423  11.2991572  19.8190202  80.1674794
   4.3919100  21.1862789  82.0627037   3.7229475  21.6708917  81.5791077
   4.2531970  21.4332009  82.9770416  11.6692756  21.1688508  85.6473378
  11.5443895  20.3678248  85.1384323  12.3271847  21.6634701  85.1587348
  13.7327664  18.9697528  87.2752928  12.7858000  18.8502879  87.2031255
  14.0810437  18.0820026  87.3579189  10.7374097  18.7650244  83.4757280
  10.5899060  17.8366952  83.6564850  11.5627591  18.7870335  82.9914355
  14.3408219  19.5878803  84.5622153  15.2654767  19.3821664  84.4246604
  14.1723523  19.3395204  85.4711494  14.1303535  20.1064470  79.9184244
  14.3040413  19.5410893  79.1658097  14.6232427  20.9065365  79.7363734
  19.9842927  12.8700893  81.5374544  20.4274073  12.1208219  81.1393667
  19.1069437  12.8611030  81.1548276  15.1178708  19.4231235  77.0181143
  15.8129613  20.0437928  77.2368457  15.4601858  18.5726586  77.2933521
  17.0170131  16.8730940  78.5468473  17.5421455  17.2118213  77.8217793
  16.9292484  15.9377956  78.3631608   8.7010792  22.9402924  82.9063727
   8.2615782  22.4479302  83.5996583   9.4518909  22.3975891  82.6655802
   5.7098171  17.0344856  78.4544489   5.8586291  17.7180321  77.8011162
   6.5164614  17.0149946  78.9693945  19.5275791  14.3406132  83.9296992
  20.3622683  14.7795936  84.0934552  19.6634920  13.8644785  83.1105237
   9.2093576  19.5292987  75.9256236   8.6367544  20.1483174  75.4726708
   9.7826370  20.0792348  76.4596158  12.4290836  19.8130137  77.0564818
  13.3621509  19.7475698  77.2597694  12.3414049  20.6486404  76.5979351
  15.0578853  19.1296007  74.0168766  14.9792484  18.7955871  74.9104524
  15.8788520  19.6217775  74.0160238  23.5733594  13.0573753  86.3651121
  24.3036982  12.7959041  86.9258825  22.9640539  12.3202475  86.4053189
  12.6282805  16.4464002  73.6378744  13.3318655  16.6514005  74.2536400
  11.9045453  17.0140764  73.9027828  13.4580615  12.1973864  79.7581015
  13.4015816  12.6542415  78.9188647  14.0108957  11.4364548  79.5803857
  17.2685421   7.9863596  80.5831134  17.0122355   7.5860231  81.4139342
  16.6438289   8.7007390  80.4581273  21.5797759  10.7259669  83.0902425
  21.0197317  10.7952858  83.8633988  20.9741262  10.5500653  82.3701922
   4.6492968  22.1596396  84.8420612   4.5325352  23.1041828  84.7399302
   3.8285414  21.8569957  85.2306411  14.5369502  16.8846532  75.6877204
  15.3715106  16.4527730  75.5054679  14.3753845  16.7128545  76.6154099
  14.1915394  13.3878645  77.0533544  14.1364198  13.2222916  76.1121988
  13.5661450  14.0954678  77.2095733   7.4301084  21.5655644  84.7186619
   6.4796715  21.5657506  84.6050991   7.7333570  20.8188379  84.2022653
  23.1653777  27.4016183  85.7832381  23.8032187  27.2822930  85.0795721
  23.0474620  28.3497027  85.8420333  19.9743483  27.3543611  85.7193906
  19.6361995  27.2384676  84.8314441  20.8433252  26.9534776  85.6994912
  15.8330299  29.2079087  81.7090797  15.2695164  29.1169024  80.9407085
  15.7182694  28.3878992  82.1893289  20.4563266  28.5078463  91.6780111
  20.4451907  28.1131261  90.8060615  20.6183906  27.7744535  92.2713883
  13.3794731  30.7030279  84.5475017  14.1716023  30.3621104  84.1321317
  13.6191381  30.8125254  85.4677171  21.4129858  32.8750055  77.0205262
  20.7617838  33.4604135  76.6339276  22.2074221  33.4056250  77.0800299
  15.3385485  29.9639192  77.4192396  16.1116361  29.4168179  77.2805272
  15.6910884  30.8283441  77.6306857  17.1770528  31.2915574  90.6259295
  16.8860394  32.1961205  90.5105962  17.8127512  31.3332102  91.3403365
  18.1026734  28.6692423  87.2160655  18.6990307  28.4448445  86.5017618
  18.1601706  27.9277168  87.8186103  17.6751763  26.1231858  75.0510846
  17.9277284  25.6013380  74.2894309  16.7376322  25.9598004  75.1537530
  22.7195046  25.1267637  82.8585589  23.5058135  24.7087060  82.5076006
  22.9833750  26.0313729  83.0267238  22.8905123  30.5640487  77.5574246
  22.2550956  30.6375113  78.2695151  22.5602529  31.1534086  76.8793325
  28.1203473  25.0642870  83.7618568  28.8528645  24.4942087  83.9956397
  27.3642828  24.6764470  84.2025073  17.3948052  28.0259964  77.2535221
  17.2784310  27.3504868  77.9216305  17.5050311  27.5392338  76.4367374
  19.7379592  27.4870111  80.9581910  19.3737800  26.9600732  81.6694832
  20.5946708  27.0968580  80.7848396  25.6428893  18.7764444  88.2213176
  25.3112218  19.6459855  87.9974391  25.0474507  18.4600728  88.9007207
  19.3785079  22.5160011  75.9543259  19.5459482  23.3840247  76.3213730
  19.1882249  22.6787293  75.0304548  22.1360413  30.9776990  87.6209089
  21.8361136  31.8802029  87.5124896  21.7911472  30.7109173  88.4730242
  15.5872894  27.4290787  83.6545793  14.6623391  27.2967001  83.8623485
  15.8357307  28.2085006  84.1515736  25.5357556  23.4959530  85.3006526
  24.6274434  23.4274939  85.0065287  25.4845152  23.9731475  86.1288352
  19.3574300  24.9717668  76.9389926  19.2373926  25.4174719  77.7775406
  18.6626889  25.3202986  76.3803464  12.9481705  27.0724060  84.4889583
  13.0774086  27.3258539  85.4028994  12.2679156  27.6651768  84.1694238
  17.1181192  37.7421310  80.5880057  17.0405222  38.6929135  80.6668537
  16.5142836  37.3967183  81.2454983  19.6098422  24.9149176  93.2441424
  18.8331756  25.4743096  93.2344288  20.2488985  25.4005959  93.7656294
  27.4019203  21.6975968  87.0784400  26.7593583  21.9908502  86.4324195
  26.8974131  21.5828889  87.8837597  25.0559367  25.4439142  77.7670260
  25.9677223  25.6766528  77.5917957  24.5469014  26.0276186  77.2045338
  17.8644795  27.7234629  92.8059391  18.6059479  28.2619673  92.5294214
  17.1581780  28.3500918  92.9630942  23.3400134  29.8663770  91.4031552
  23.7483490  29.4246180  90.6586185  22.6177396  29.2916397  91.6565745
  19.6931204  24.8036376  88.7765109  20.5392399  25.2275790  88.9199758
  19.6329842  24.1470001  89.4703672  23.6628949  30.4264960  85.1583841
  23.0337811  30.5910674  84.4559909  23.2754611  30.8406570  85.9294805
  27.5418181  31.3619398  82.5128205  26.8569219  31.7418299  81.9625238
  27.6262030  31.9714725  83.2460153  22.8430650  22.4640745  90.4346283
  22.5991581  23.2182805  89.8980558  23.1190580  22.8426092  91.2693530
  24.7969112  29.0079357  89.1123548  25.0086008  29.6511117  88.4357929
  24.7498861  28.1741674  88.6445478  22.3995341  21.6197178  86.0160120
  21.5379820  21.9178431  86.3076858  22.4257776  21.8367577  85.0841153
  19.2156911  30.1639368  82.4233926  19.6795256  30.4427071  81.6338549
  18.9513709  29.2622813  82.2407017  16.1080992  29.7110850  85.3613689
  16.6782349  30.1398118  84.7231174  16.6989104  29.4293434  86.0597875
  18.1525797  26.2862521  79.2323491  18.8549840  26.7383564  79.6997418
  17.8206425  25.6446339  79.8603384  11.8951131  24.5446073  84.5340625
  11.1050185  24.8003602  84.0580735  12.3862378  25.3594411  84.6392665
  25.9114940  31.8851312  87.2845906  26.7332384  31.4831500  87.0028587
  25.9077343  31.7819547  88.2362021  13.8465876  24.9090653  81.4924102
  13.0497039  25.0209347  82.0107597  13.6191468  25.2477305  80.6264992
  19.6771544  31.4335356  89.4406616  19.7415976  31.8955763  90.2764788
  18.9682468  30.8032721  89.5688926  10.1788834  24.7976564  86.9655616
  10.4296872  25.6823574  87.2313192  10.7148382  24.6181165  86.1930707
  34.0020933  28.2290061  83.6330877  33.2484642  27.6597459  83.4774882
  34.1368475  28.1952725  84.5801512  19.3919561  33.1003463  79.3085596
  19.2565236  33.9454999  79.7370444  19.9329374  33.3022741  78.5451530
  12.8448959  30.6178901  79.8813522  13.3573479  31.4122152  80.0319086
  13.4971672  29.9205192  79.8147123  14.6543843  33.7344658  81.9636275
  14.8310472  34.6562622  81.7757259  15.4500677  33.4203077  82.3930655
  21.0188038  33.7227030  93.4385939  20.5751892  32.9363408  93.1206843
  21.6805251  33.9106180  92.7729829  15.7775159  35.2522831  87.9646617
  16.3282584  35.1239895  87.1923611  14.9386635  35.5517720  87.6141510
  23.1169276  34.0029830  91.4667340  23.0987751  34.8238711  90.9747609
  24.0389196  33.8783905  91.6917481  19.5742330  31.5173959  92.3090848
  20.1070667  30.7562247  92.0790156  19.0456411  31.2247611  93.0515003
  22.7412025  16.6234025  87.8384490  22.3976294  17.5135667  87.7623601
  23.1090988  16.4335683  86.9754075  10.8097876  28.9467556  80.6573092
  11.6473098  29.3564564  80.4406800  10.9876143  28.0066998  80.6273286
  22.7062308  26.6142636  76.3456925  22.1908931  27.3847241  76.5845312
  22.4339616  25.9407772  76.9689987  20.2909419  21.4592337  81.4042163
  19.4351015  21.0699187  81.2247802  20.7036370  21.5384298  80.5441949
  21.8208565  18.9938680  85.8033723  21.3173361  18.9568815  84.9901528
  22.1139172  19.9031423  85.8630380  18.0651451  19.0777410  84.8099905
  18.9304448  18.8820219  84.4505794  18.1328960  18.8487762  85.7369262
  27.6796582  29.3674991  78.2810099  26.9026025  29.0286150  77.8365261
  28.3588063  29.3727614  77.6065064  22.4948611  24.4869728  78.1716706
  22.1898746  24.8015877  79.0226849  23.4479053  24.5651148  78.2144039
  20.9395043  30.6459952  79.8209660  20.4116404  29.9112711  79.5082898
  20.4382545  31.4234628  79.5749629  25.9187889  28.8408972  84.9376707
  25.2611563  29.5308233  85.0256835  26.7228288  29.2305404  85.2810693
  15.6713770  21.3079618  82.1816272  16.2457522  21.0854799  81.4489465
  16.2584753  21.3768312  82.9344873  24.7293347  27.1953345  82.9880648
  25.2425229  27.8283337  83.4902358  25.3794571  26.5954540  82.6224008
  15.9983357  23.3384079  76.2012157  15.1620670  23.6758765  76.5221432
  15.8588127  23.2033059  75.2639294  17.9736438  18.1820867  80.9091341
  17.3200850  17.8669884  80.2847956  17.9316912  17.5596607  81.6351164
  19.0847643  28.4640162  72.8244633  18.1774705  28.2329415  73.0235782
  19.5818675  27.6677781  73.0118615  21.9915722  37.1737669  75.7441319
  21.3177420  37.4769366  76.3526277  22.3781544  37.9766749  75.3946776
  21.2074178  24.6702800  85.2338989  20.2896740  24.8917747  85.0760677
  21.6234322  24.7449111  84.3750696  21.9909226  26.0694216  80.3641669
  22.7381045  26.5815613  80.0548791  22.2600816  25.7478269  81.2246063
  20.2635876  28.5652757  77.3468623  19.3547096  28.2811790  77.4441093
  20.2930960  28.9851835  76.4871930  25.4955144  32.1759346  81.1159791
  25.0417471  31.3350256  81.1724981  24.8649110  32.8120745  81.4534571
  24.4388063  23.1051332  82.3460458  23.7010820  22.5928718  82.6770701
  24.6914837  22.6651714  81.5343735  23.9388083  34.0135843  82.0509609
  24.2311057  34.5740900  81.3321975  24.4486704  34.3064404  82.8062768
  24.5399691  15.8827584  82.9402228  24.8458567  15.0224948  82.6528143
  25.2652295  16.4745204  82.7401222  10.8324047  26.2858271  81.3283826
  10.6348446  25.6927632  80.6034892  10.2770711  25.9810481  82.0459764
  18.8120770  26.1781377  83.4478419  18.8669380  25.2255214  83.3720895
  18.0011972  26.3340816  83.9319717  19.9611964  30.1061500  74.6856702
  19.5231394  29.3897359  74.2262339  20.7022405  30.3337615  74.1241793
  16.7513130  24.7958437  81.2068798  15.9380996  25.0952608  81.6133990
  17.2472124  24.4014126  81.9243280  18.9021708  34.7916194  83.1403062
  18.8597887  35.0177040  82.2111594  19.8184407  34.5579569  83.2888863
  22.3487342  25.2600262  90.0383691  22.7036730  25.4871735  90.8978157
  22.9959473  25.5918638  89.4160947  28.0785079  28.3818697  80.7433020
  27.9402977  28.5720293  79.8154210  27.7221298  29.1438080  81.2001072
  16.2427205  22.3676793  86.8230033  16.8826584  22.2265552  86.1252996
  15.4104736  22.0811306  86.4468635  28.1054458  30.4495224  85.7544292
  28.5390965  30.3570514  86.6027346  28.8186039  30.4252725  85.1164308
  17.0187509  31.6679223  82.9365025  17.8128107  31.1729543  82.7347600
  16.3079201  31.1397086  82.5732731  21.8382353  34.0497319  87.2877393
  21.8919376  34.6188255  88.0555109  20.9697135  34.2199204  86.9231430
  13.3270272  25.8122305  79.0124778  12.3967860  25.7506760  79.2294740
  13.4227744  25.2898258  78.2161419  13.2455821  22.3377118  81.6003019
  13.5062639  23.2522451  81.4912180  14.0672994  21.8701560  81.7499632
  14.7180747  23.7514875  88.7701844  15.3903800  23.5432237  88.1214493
  13.8910533  23.5536961  88.3307076  28.9670008  30.4918925  88.2877177
  29.1605898  31.3964736  88.5336452  28.8670626  30.0326344  89.1215762
  20.6206319  20.3776816  90.7867505  19.9734234  21.0766765  90.6931981
  21.3907334  20.8112960  91.1543753  24.0285117  30.6425668  93.8618058
  23.8770623  30.4136220  92.9448142  24.0189796  31.5996269  93.8749403
  20.7970453  28.2157581  88.8464324  21.7262513  28.3668740  88.6733292
  20.3761483  28.3041601  87.9912971  19.5958785  32.2408245  86.6162862
  19.4569871  31.8727029  87.4888800  18.8073381  32.7555884  86.4446820
  20.1906937  37.3417341  77.9588399  20.3658693  36.8705385  78.7734021
  19.5039725  37.9683108  78.1869659  21.1464000  31.6189848  84.0051700
  20.8113833  31.5790618  84.9009350  20.6467946  30.9534564  83.5322110
  15.1208244  27.0257478  89.5304281  14.9828042  26.2937717  90.1315820
  16.0313167  26.9366378  89.2488469  24.0823192  28.9645882  74.2788760
  23.4652362  28.2392710  74.1821812  23.6139680  29.7255242  73.9355834
  17.7490545  26.7377437  89.0187961  18.4590163  26.0970629  88.9774579
  17.7059853  26.9890332  89.9414141  25.7377323  33.6744790  91.9394540
  25.6789870  32.9904011  91.2725123  26.1396842  34.4163780  91.4875166
  14.7568022  40.4906704  84.7328259  14.9964620  41.1225228  85.4107277
  13.9137219  40.1394744  85.0193618  15.8721738  23.1831306  73.4010064
  14.9951204  23.0620107  73.0372310  16.3479491  22.3917385  73.1488952
  25.7394731  31.6384374  90.1708520  24.8521509  31.3010296  90.2934918
  26.3093282  30.9067406  90.4077285   7.3923878  27.9708466  83.4951571
   8.0794918  27.6570196  82.9072586   7.2372006  28.8749831  83.2218822
  12.1958600  22.8598663  87.9236595  12.1116789  22.2524332  87.1887005
  11.3741306  23.3507681  87.9246091  19.2695884  36.2985827  87.1369763
  19.1966056  37.1040798  87.6489067  18.8273277  36.4977793  86.3117784
  19.0585664  35.5357597  80.6472584  18.2753186  36.0779277  80.7410809
  19.7578409  36.0531576  81.0466825  22.3682314  21.3452226  83.2906790
  22.8651013  20.5922189  82.9707860  21.5969295  21.3816543  82.7249999
  30.2212071  27.0492592  84.9325081  30.2101947  27.9317307  84.5619014
  29.3529451  26.6964143  84.7379618  21.7294568  36.1972661  89.2927921
  22.4422540  36.8320126  89.2203823  21.2384596  36.2936527  88.4767923
  23.4512094  30.1023913  80.8645213  22.5168373  30.2225376  80.6949917
  23.6288763  29.1996380  80.6005223  18.9517283  23.4869609  83.0178474
  18.5815070  22.9340650  83.7059380  19.4476375  22.8827743  82.4653474
  26.8384646  25.9441233  81.3995247  27.3045098  26.7769224  81.3255550
  27.2892146  25.4786214  82.1040506  16.7806481  33.9467104  90.1133492
  17.4815941  34.5803587  90.2662886  16.3101596  34.2881836  89.3529132
  24.9060877  32.2885054  78.3981399  25.1820721  32.1741649  79.3075273
  24.0365376  31.8902539  78.3593572  24.8101309  18.3121820  85.4386149
  23.8964388  18.5426047  85.6068355  25.2394410  18.3960264  86.2900181
  24.5807767  26.5011712  87.9386043  23.9279217  26.7487619  87.2838495
  24.9588147  25.6875850  87.6048520  21.5414941  36.5371405  82.0414213
  21.7237335  35.7193061  82.5041965  22.3647927  36.7539097  81.6039103
  21.8757106  35.4639590  79.3029261  22.4044873  34.9532045  78.6899423
  22.1385326  35.1482120  80.1674794  20.6295340  27.2431523  94.4252080
  19.9535977  27.1425652  95.0954455  21.4522974  27.0870736  94.8888077
  12.3774199  33.4803459  87.0464595  12.9627636  32.7347147  87.1792499
  12.1799038  33.7907416  87.9301259  15.2312854  36.5154707  82.0627037
  14.5623230  37.0000834  81.5791077  15.0925724  36.7623927  82.9770416
   6.9691854  26.0509059  85.7669038   7.0075953  25.5172650  86.5606156
   6.4632147  25.5244265  85.1480015  19.3718123  38.5498450  88.6609696
  19.9236431  38.7130072  89.4258781  19.7124316  39.1402888  87.9889721
  24.2228997  33.3759708  94.5158350  24.7668901  33.9889666  94.0213305
  23.6415842  33.9339286  95.0325363  10.6000431  24.7773162  78.8422969
  10.8953873  23.8683840  78.7890023   9.6988467  24.7560901  78.5203972
  22.5086510  36.4980426  85.6473378  22.3837650  35.6970166  85.1384323
  23.1665601  36.9926619  85.1587348  14.1294678  22.8529158  84.8250518
  13.4081264  23.4665126  84.6857991  14.9187934  23.3886923  84.7467164
  24.5721419  34.2989446  87.2752928  23.6251754  34.1794797  87.2031255
  24.9204192  33.4111944  87.3579189  12.3288273  22.4587259  78.9662295
  12.0000979  21.5784638  78.7837401  12.6827644  22.4034928  79.8538684
  21.5767852  34.0942162  83.4757280  21.4292814  33.1658869  83.6564850
  22.4021345  34.1162253  82.9914355  15.4430096  22.7460229  79.3337772
  15.7826169  23.2746150  78.6116381  15.8902217  23.0840635  80.1096339
  25.1801974  34.9170721  84.5622153  26.1048521  34.7113582  84.4246604
  25.0117277  34.6687122  85.4711494  18.1373537  21.1297280  88.7840840
  17.7970357  20.3305093  89.1861520  17.4312543  21.4298991  88.2117674
  18.7890009  18.2146592  87.2368163  19.6116078  17.7407070  87.1147054
  19.0328072  18.9937076  87.7366850  17.4298243  21.2434851  77.5331065
  18.1506606  21.6216103  77.0294782  16.8063547  21.9623727  77.6366043
  21.5729366  21.9480000  78.4689397  21.7892981  22.8304637  78.1678226
  21.0923433  21.5566213  77.7395039  16.3128588  24.9065713  85.0460142
  16.1673168  25.2206016  85.9384423  15.8353791  25.5250613  84.4931041
  18.1724970  21.8968261  85.0941032  18.1586539  21.0009354  84.7573329
  18.8897399  21.9038925  85.7279318  20.0251101  22.3305601  87.1394159
  19.7668879  23.2522672  87.1378489  19.4936142  21.9336036  87.8294623
  24.9697290  35.4356388  79.9184244  25.1434167  34.8702811  79.1658097
  25.4626181  36.2357283  79.7363734  10.7874250  27.4471057  87.9847803
  10.2427718  28.2230865  88.1168077  11.6653600  27.7941862  87.8266925
  17.5761866  20.7782641  80.3628602  17.6977778  19.8499287  80.5619489
  17.2863909  20.7921327  79.4506917  20.4453057  18.4637552  83.4995322
  20.4674754  18.5276885  82.5447301  20.8621116  17.6242060  83.6935828
  30.8236681  28.1992811  81.5374544  31.2667827  27.4500136  81.1393667
  29.9463191  28.1902947  81.1548276  25.9572462  34.7523153  77.0181143
  26.6523367  35.3729845  77.2368457  26.2995613  33.9018504  77.2933521
  27.8563886  32.2022858  78.5468473  28.3815210  32.5410131  77.8217793
  27.7686238  31.2669873  78.3631608  19.5183934  36.1156932  90.6758350
  19.8271061  35.8706079  91.5481050  20.3159416  36.3203570  90.1877220
  19.5404546  38.2694841  82.9063727  19.1009537  37.7771220  83.5996583
  20.2912663  37.7267809  82.6655802  12.0196885  34.4606382  82.9088355
  12.8454905  34.1610154  82.5286998  11.6690937  33.6914005  83.3578143
  16.9878418  33.8132850  84.9786028  16.3658428  33.1503555  84.6788256
  17.6583285  33.8393982  84.2959676  10.2205490  32.3792709  83.8677288
   9.3837399  31.9514883  83.6861290  10.1929136  32.5725152  84.8048079
  27.5457792  32.8355762  93.8519671  26.7553335  32.8179901  93.3124171
  27.3091146  33.3744055  94.6068708  27.6655667  29.6848228  91.1652400
  27.7153672  29.5198236  92.1067923  27.5569590  28.8175487  90.7750281
  16.5491925  32.3636774  78.4544489  16.6980046  33.0472238  77.8011162
  17.3558369  32.3441864  78.9693945  24.9559429  25.6679156  92.4811707
  25.8569292  25.5285621  92.1895704  25.0307404  25.8333611  93.4209884
  19.2902234  23.0446011  91.3264893  18.4205544  23.3379577  91.0547481
  19.5261715  23.6286456  92.0472157  29.1673864  32.1045170  91.4094421
  28.8758672  32.4675150  92.2457882  28.5545995  31.3912178  91.2307754
  30.3669546  29.6698049  83.9296992  31.2016437  30.1087853  84.0934552
  30.5028675  29.1936703  83.1105237  27.4161052  27.2277784  89.8774479
  27.8915173  27.4205431  89.0693331  26.4926617  27.2836970  89.6317863
  14.3044558  28.3901951  79.4605558  14.0590600  27.4864281  79.6585768
  14.4740473  28.3919102  78.5185036  21.9941268  19.2625628  88.8430313
  22.5123212  19.9986655  88.5176802  21.6396401  19.5689621  89.6777072
  13.5740206  24.1230309  76.9591719  12.8809451  24.1974664  76.3031755
  13.3291958  23.3590653  77.4813236  22.2453862  15.6825910  84.3631210
  22.5255616  15.0149099  84.9891636  23.0304469  15.8755006  83.8505874
  20.0487331  34.8584904  75.9256236  19.4761298  35.4775091  75.4726708
  20.6220125  35.4084266  76.4596158  26.1162721  24.1043544  88.1102785
  27.0680144  24.2041642  88.1315009  25.9466171  23.3121813  88.6200869
  24.1377100  21.1899128  88.2962186  23.5427032  21.4704140  87.6008675
  23.8526797  21.6793028  89.0678927  23.2684591  35.1422054  77.0564818
  24.2015264  35.0767616  77.2597694  23.1807804  35.9778321  76.5979351
  25.8972607  34.4587925  74.0168766  25.8186239  34.1247788  74.9104524
  26.7182274  34.9509693  74.0160238  28.5950799  27.3249664  87.2245085
  28.5627119  26.3865665  87.4104768  29.2051422  27.4033701  86.4910910
  20.4334129  26.1945717  73.2672289  21.3793234  26.0651925  73.3360707
  20.0548374  25.4560379  73.7441717  28.7445287  24.1160707  87.2703368
  28.2284336  23.3319164  87.0833297  29.6285236  23.7879424  87.4349887
  26.4056014  17.8601723  83.2299181  26.2080835  17.5516811  84.1142512
  27.0155720  18.5863362  83.3597110  34.4127348  28.3865671  86.3651121
  35.1430737  28.1250959  86.9258825  33.8034294  27.6494393  86.4053189
  32.4942646  26.5273533  86.9625573  31.7675809  26.3929498  86.3542064
  32.0789932  26.8350362  87.7682291  20.3172822  30.2463463  94.7272946
  21.2375831  30.4242062  94.9212992  20.2822405  29.3019508  94.5752645
  18.6177047  24.1195693  73.2027174  17.7108502  23.8228806  73.2789888
  18.8953028  23.8225511  72.3361460   9.5354987  25.4402057  83.6526220
   9.2157771  24.5867365  83.3600594   8.9888415  25.6550635  84.4084188
  13.3134894  28.1564498  87.3695727  13.5320904  29.0881606  87.3883761
  13.7260668  27.7972472  88.1550531  20.2339112  18.6632583  79.3571415
  19.4239841  18.3179668  79.7326661  20.9223529  18.3540127  79.9459027
  22.1629661  17.7410630  80.9795712  22.7160699  18.1606083  81.6385735
  22.3999747  16.8146378  81.0218668  17.3875831  20.9782629  73.3439153
  18.2494995  21.3037527  73.6034970  17.5726175  20.1914125  72.8312219
   9.4043247  29.0604968  85.6219342   8.7106718  28.6458921  85.1089296
  10.1516238  29.1025505  85.0252761  25.5408468  19.8511155  80.4874376
  24.9607137  20.5095959  80.1052429  25.2744400  19.0288500  80.0761794
  23.9912034  19.2516213  82.6895696  24.4911812  19.3632747  81.8810015
  24.6347642  18.9477266  83.3296505  11.3179989  28.9923222  83.4985357
  11.2950678  29.0910909  82.5467240  11.6280626  29.8388373  83.8202523
  13.9767367  31.0499377  87.6131971  14.9310621  31.0183319  87.5461903
  13.7779891  30.5890001  88.4282197  14.5666749  29.6200493  90.1802769
  15.3859638  30.1144572  90.2037606  14.8403557  28.7032461  90.1520336
  24.3233346  22.0111245  79.5430724  23.4359201  22.2960896  79.3250919
  24.7387335  21.8505009  78.6958001  27.6747882  22.0357766  83.2585064
  28.4508272  22.5254219  83.5309680  26.9496016  22.4615821  83.7156933
  30.1120440  22.7485386  84.3159004  30.7064931  22.5081122  83.6052313
  30.1847024  22.0292516  84.9432541  12.3317596  36.5918997  84.6302169
  12.1972064  35.8319397  84.0640167  11.9149658  37.3159896  84.1630958
  23.4676559  31.7755920  73.6378744  24.1712409  31.9805923  74.2536400
  22.7439208  32.3432682  73.9027828  24.2974369  27.5265781  79.7581015
  24.2409571  27.9834333  78.9188647  24.8502712  26.7656466  79.5803857
  28.1079175  23.3155513  80.5831134  27.8516110  22.9152149  81.4139342
  27.4832043  24.0299307  80.4581273  32.4191513  26.0551586  83.0902425
  31.8591071  26.1244776  83.8633988  31.8135017  25.8792571  82.3701922
  15.4886722  37.4888314  84.8420612  15.3719106  38.4333746  84.7399302
  14.6679168  37.1861875  85.2306411  25.3763257  32.2138449  75.6877204
  26.2108860  31.7819648  75.5054679  25.2147599  32.0420463  76.6154099
  25.0309149  28.7170563  77.0533544  24.9757953  28.5514834  76.1121988
  24.4055204  29.4246596  77.2095733  22.3455056  31.0219474  96.3787107
  23.2146216  31.1960127  96.0173741  21.8661807  31.8413891  96.2562836
  18.3405274  18.2178672  76.6318862  18.3283944  19.1620512  76.7887133
  19.2328696  18.0348817  76.3378323  16.5141236  38.1416575  88.0576540
  17.4168483  38.1740186  88.3743035  16.2878606  37.2117026  88.0722876
  18.2694838  36.8947562  84.7186619  17.3190469  36.8949424  84.6050991
  18.5727324  36.1480297  84.2022653  22.1557394  14.8121448  80.8864799
  21.3889789  14.2579935  81.0321481  22.5668099  14.8843317  81.7478951
  34.0047532  42.7308100  85.7832381  34.6425942  42.6114848  85.0795721
  33.8868375  43.6788944  85.8420333  30.8137238  42.6835529  85.7193906
  30.4755749  42.5676593  84.8314441  31.6827006  42.2826694  85.6994912
  26.6724054  44.5371005  81.7090797  26.1088919  44.4460942  80.9407085
  26.5576449  43.7170909  82.1893289  31.2957021  43.8370380  91.6780111
  31.2845662  43.4423179  90.8060615  31.4577660  43.1036453  92.2713883
  24.2188486  46.0322197  84.5475017  25.0109777  45.6913021  84.1321317
  24.4585136  46.1417172  85.4677171  32.2523612  48.2041973  77.0205262
  31.6011592  48.7896053  76.6339276  33.0467975  48.7348168  77.0800299
  26.1779239  45.2931110  77.4192396  26.9510115  44.7460097  77.2805272
  26.5304638  46.1575359  77.6306857  28.0164282  46.6207492  90.6259295
  27.7254148  47.5253123  90.5105962  28.6521266  46.6624020  91.3403365
  28.9420489  43.9984341  87.2160655  29.5384061  43.7740363  86.5017618
  28.9995460  43.2569086  87.8186103  28.5145517  41.4523776  75.0510846
  28.7671038  40.9305297  74.2894309  27.5770076  41.2889921  75.1537530
  33.5588800  40.4559554  82.8585589  34.3451889  40.0378977  82.5076006
  33.8227504  41.3605646  83.0267238  33.7298877  45.8932405  77.5574246
  33.0944710  45.9667031  78.2695151  33.3996284  46.4826003  76.8793325
  38.9597227  40.3934787  83.7618568  39.6922399  39.8234004  83.9956397
  38.2036583  40.0056388  84.2025073  28.2341806  43.3551882  77.2535221
  28.1178064  42.6796785  77.9216305  28.3444066  42.8684256  76.4367374
  30.5773347  42.8162029  80.9581910  30.2131554  42.2892650  81.6694832
  31.4340463  42.4260498  80.7848396  36.4822648  34.1056362  88.2213176
  36.1505972  34.9751773  87.9974391  35.8868261  33.7892646  88.9007207
  30.2178834  37.8451929  75.9543259  30.3853236  38.7132165  76.3213730
  30.0276003  38.0079210  75.0304548  32.9754167  46.3068908  87.6209089
  32.6754890  47.2093946  87.5124896  32.6305227  46.0401091  88.4730242
  26.4266649  42.7582704  83.6545793  25.5017145  42.6258919  83.8623485
  26.6751062  43.5376924  84.1515736  36.3751311  38.8251448  85.3006526
  35.4668188  38.7566856  85.0065287  36.3238907  39.3023393  86.1288352
  30.1968055  40.3009586  76.9389926  30.0767680  40.7466637  77.7775406
  29.5020643  40.6494904  76.3803464  23.7875460  42.4015978  84.4889583
  23.9167841  42.6550457  85.4028994  23.1072911  42.9943686  84.1694238
  27.9574947  53.0713228  80.5880057  27.8798977  54.0221053  80.6668537
  27.3536591  52.7259100  81.2454983  30.4492177  40.2441093  93.2441424
  29.6725511  40.8035013  93.2344288  31.0882740  40.7297876  93.7656294
  38.2412957  37.0267886  87.0784400  37.5987338  37.3200419  86.4324195
  37.7367886  36.9120807  87.8837597  35.8953121  40.7731059  77.7670260
  36.8070977  41.0058446  77.5917957  35.3862768  41.3568104  77.2045338
  28.7038549  43.0526547  92.8059391  29.4453233  43.5911591  92.5294214
  27.9975534  43.6792835  92.9630942  34.1793889  45.1955687  91.4031552
  34.5877245  44.7538098  90.6586185  33.4571150  44.6208315  91.6565745
  30.5324959  40.1328294  88.7765109  31.3786154  40.5567708  88.9199758
  30.4723596  39.4761918  89.4703672  34.5022703  45.7556878  85.1583841
  33.8731566  45.9202592  84.4559909  34.1148365  46.1698487  85.9294805
  38.3811935  46.6911316  82.5128205  37.6962973  47.0710217  81.9625238
  38.4655785  47.3006642  83.2460153  33.6824404  37.7932662  90.4346283
  33.4385336  38.5474723  89.8980558  33.9584335  38.1718010  91.2693530
  35.6362867  44.3371275  89.1123548  35.8479762  44.9803035  88.4357929
  35.5892615  43.5033591  88.6445478  33.2389096  36.9489095  86.0160120
  32.3773575  37.2470349  86.3076858  33.2651530  37.1659494  85.0841153
  30.0550665  45.4931286  82.4233926  30.5189011  45.7718989  81.6338549
  29.7907463  44.5914730  82.2407017  26.9474746  45.0402767  85.3613689
  27.5176103  45.4690036  84.7231174  27.5382858  44.7585352  86.0597875
  28.9919551  41.6154438  79.2323491  29.6943595  42.0675482  79.6997418
  28.6600180  40.9738257  79.8603384  27.4399913  40.2066195  93.6074701
  26.8098573  40.8882476  93.8410097  27.3336001  40.0949276  92.6627839
  22.7344885  39.8737991  84.5340625  21.9443939  40.1295519  84.0580735
  23.2256133  40.6886329  84.6392665  36.7508695  47.2143230  87.2845906
  37.5726138  46.8123417  87.0028587  36.7471098  47.1111464  88.2362021
  24.6859631  40.2382570  81.4924102  23.8890794  40.3501264  82.0107597
  24.4585223  40.5769222  80.6264992  30.5165298  46.7627273  89.4406616
  30.5809731  47.2247681  90.2764788  29.8076222  46.1324638  89.5688926
  21.0182588  40.1268481  86.9655616  21.2690627  41.0115491  87.2313192
  21.5542137  39.9473083  86.1930707  30.2313316  48.4295381  79.3085596
  30.0958991  49.2746917  79.7370444  30.7723128  48.6314659  78.5451530
  26.7180655  34.5086961  95.9699952  26.3247601  33.9553159  96.6447596
  27.5346796  34.8197539  96.3606469  23.6842713  45.9470819  79.8813522
  24.1967234  46.7414069  80.0319086  24.3365426  45.2497109  79.8147123
  25.4937598  49.0636575  81.9636275  25.6704226  49.9854540  81.7757259
  26.2894431  48.7494994  82.3930655  29.6348616  35.9244840  93.5620208
  30.3758330  36.5251993  93.4824671  29.8666539  35.1822478  93.0038251
  24.7789954  41.1101207  91.8398438  24.6643470  40.2086464  92.1405537
  23.9234472  41.3564904  91.4883254  31.8581792  49.0518947  93.4385939
  31.4145646  48.2655326  93.1206843  32.5199006  49.2398098  92.7729829
  26.6168913  50.5814749  87.9646617  27.1676339  50.4531812  87.1923611
  25.7780389  50.8809638  87.6141510  33.9563030  49.3321747  91.4667340
  33.9381506  50.1530628  90.9747609  34.8782950  49.2075823  91.6917481
  30.4136084  46.8465877  92.3090848  30.9464421  46.0854165  92.0790156
  29.8850166  46.5539529  93.0515003  33.5805779  31.9525943  87.8384490
  33.2370049  32.8427584  87.7623601  33.9484742  31.7627600  86.9754075
  21.6491630  44.2759473  80.6573092  22.4866852  44.6856482  80.4406800
  21.8269898  43.3358915  80.6273286  33.5456062  41.9434554  76.3456925
  33.0302686  42.7139159  76.5845312  33.2733371  41.2699690  76.9689987
  31.1303173  36.7884255  81.4042163  30.2744770  36.3991105  81.2247802
  31.5430125  36.8676215  80.5441949  32.6602320  34.3230598  85.8033723
  32.1567115  34.2860733  84.9901528  32.9532927  35.2323341  85.8630380
  28.9045206  34.4069328  84.8099905  29.7698202  34.2112136  84.4505794
  28.9722715  34.1779679  85.7369262  38.5190336  44.6966909  78.2810099
  37.7419779  44.3578068  77.8365261  39.1981817  44.7019532  77.6065064
  33.3342365  39.8161646  78.1716706  33.0292501  40.1307795  79.0226849
  34.2872807  39.8943066  78.2144039  31.7788797  45.9751869  79.8209660
  31.2510159  45.2404629  79.5082898  31.2776300  46.7526546  79.5749629
  36.7581643  44.1700890  84.9376707  36.1005318  44.8600151  85.0256835
  37.5622042  44.5597322  85.2810693  26.5107525  36.6371536  82.1816272
  27.0851277  36.4146717  81.4489465  27.0978507  36.7060230  82.9344873
  35.5687102  42.5245262  82.9880648  36.0818984  43.1575254  83.4902358
  36.2188326  41.9246458  82.6224008  26.8377112  38.6675997  76.2012157
  26.0014424  39.0050683  76.5221432  26.6981882  38.5324976  75.2639294
  28.8130192  33.5112784  80.9091341  28.1594605  33.1961802  80.2847956
  28.7710667  32.8888525  81.6351164  29.9241397  43.7932080  72.8244633
  29.0168459  43.5621333  73.0235782  30.4212429  42.9969699  73.0118615
  32.8309476  52.5029587  75.7441319  32.1571175  52.8061283  76.3526277
  33.2175298  53.3058667  75.3946776  32.0467933  39.9994718  85.2338989
  31.1290494  40.2209665  85.0760677  32.4628076  40.0741028  84.3750696
  32.8302981  41.3986134  80.3641669  33.5774800  41.9107531  80.0548791
  33.0994570  41.0770186  81.2246063  31.1029631  43.8944674  77.3468623
  30.1940850  43.6103707  77.4441093  31.1324715  44.3143753  76.4871930
  36.3348898  47.5051264  81.1159791  35.8811225  46.6642174  81.1724981
  35.7042865  48.1412662  81.4534571  35.2781818  38.4343250  82.3460458
  34.5404575  37.9220636  82.6770701  35.5308591  37.9943632  81.5343735
  34.7781837  49.3427761  82.0509609  35.0704812  49.9032818  81.3321975
  35.2880458  49.6356322  82.8062768  35.3793445  31.2119502  82.9402228
  35.6852322  30.3516865  82.6528143  36.1046050  31.8037122  82.7401222
  21.6717801  41.6150189  81.3283826  21.4742201  41.0219549  80.6034892
  21.1164465  41.3102399  82.0459764  29.6514525  41.5073295  83.4478419
  29.7063135  40.5547131  83.3720895  28.8405727  41.6632734  83.9319717
  30.8005719  45.4353418  74.6856702  30.3625149  44.7189277  74.2262339
  31.5416159  45.6629533  74.1241793  27.5906885  40.1250355  81.2068798
  26.7774750  40.4244525  81.6133990  28.0865879  39.7306044  81.9243280
  29.7415463  50.1208112  83.1403062  29.6991641  50.3468958  82.2111594
  30.6578161  49.8871486  83.2888863  33.1881096  40.5892179  90.0383691
  33.5430484  40.8163652  90.8978157  33.8353228  40.9210556  89.4160947
  38.9178833  43.7110615  80.7433020  38.7796732  43.9012211  79.8154210
  38.5615052  44.4729998  81.2001072  27.0820960  37.6968710  86.8230033
  27.7220339  37.5557469  86.1252996  26.2498490  37.4103224  86.4468635
  38.9448213  45.7787142  85.7544292  39.3784720  45.6862431  86.6027346
  39.6579794  45.7544643  85.1164308  27.8581263  46.9971141  82.9365025
  28.6521862  46.5021461  82.7347600  27.1472956  46.4689004  82.5732731
  32.6776108  49.3789236  87.2877393  32.7313130  49.9480173  88.0555109
  31.8090889  49.5491121  86.9231430  24.1664027  41.1414222  79.0124778
  23.2361615  41.0798678  79.2294740  24.2621499  40.6190175  78.2161419
  24.0849576  37.6669035  81.6003019  24.3456393  38.5814369  81.4912180
  24.9066748  37.1993478  81.7499632  25.5574501  39.0806792  88.7701844
  26.2297555  38.8724155  88.1214493  24.7304288  38.8828878  88.3307076
  39.8063763  45.8210843  88.2877177  39.9999653  46.7256653  88.5336452
  39.7064381  45.3618262  89.1215762  31.4600073  35.7068733  90.7867505
  30.8127988  36.4058683  90.6931981  32.2301089  36.1404877  91.1543753
  34.8678871  45.9717586  93.8618058  34.7164378  45.7428137  92.9448142
  34.8583551  46.9288187  93.8749403  31.6364208  43.5449498  88.8464324
  32.5656268  43.6960658  88.6733292  31.2155238  43.6333519  87.9912971
  30.4352539  47.5700163  86.6162862  30.2963625  47.2018947  87.4888800
  29.6467136  48.0847802  86.4446820  31.0300691  52.6709259  77.9588399
  31.2052447  52.1997302  78.7734021  30.3433479  53.2975025  78.1869659
  31.9857755  46.9481765  84.0051700  31.6507587  46.9082535  84.9009350
  31.4861700  46.2826481  83.5322110  25.9601999  42.3549395  89.5304281
  25.8221796  41.6229634  90.1315820  26.8706922  42.2658296  89.2488469
  34.9216946  44.2937800  74.2788760  34.3046117  43.5684628  74.1821812
  34.4533435  45.0547160  73.9355834  28.5884299  42.0669355  89.0187961
  29.2983918  41.4262547  88.9774579  28.5453607  42.3182250  89.9414141
  36.5771078  49.0036708  91.9394540  36.5183624  48.3195928  91.2725123
  36.9790596  49.7455698  91.4875166  27.3013233  39.0534573  90.8383600
  26.7650590  38.6025311  91.4905196  26.7129942  39.1880481  90.0954064
  25.5961777  55.8198622  84.7328259  25.8358375  56.4517146  85.4107277
  24.7530973  55.4686662  85.0193618  26.7115492  38.5123224  73.4010064
  25.8344958  38.3912025  73.0372310  27.1873245  37.7209302  73.1488952
  36.5788485  46.9676292  90.1708520  35.6915264  46.6302214  90.2934918
  37.1487036  46.2359323  90.4077285  18.2317632  43.3000384  83.4951571
  18.9188672  42.9862114  82.9072586  18.0765761  44.2041748  83.2218822
  23.0352354  38.1890580  87.9236595  22.9510543  37.5816250  87.1887005
  22.2135061  38.6799599  87.9246091  30.1089639  51.6277744  87.1369763
  30.0359810  52.4332716  87.6489067  29.6667032  51.8269710  86.3117784
  29.8979418  50.8649514  80.6472584  29.1146940  51.4071195  80.7410809
  30.5972163  51.3823494  81.0466825  33.2076068  36.6744144  83.2906790
  33.7044768  35.9214106  82.9707860  32.4363050  36.7108461  82.7249999
  41.0605826  42.3784509  84.9325081  41.0495702  43.2609225  84.5619014
  40.1923205  42.0256060  84.7379618  32.5688322  51.5264578  89.2927921
  33.2816294  52.1612043  89.2203823  32.0778351  51.6228444  88.4767923
  34.2905849  45.4315831  80.8645213  33.3562128  45.5517294  80.6949917
  34.4682517  44.5288298  80.6005223  29.7911037  38.8161527  83.0178474
  29.4208825  38.2632567  83.7059380  30.2870129  38.2119660  82.4653474
  37.6778400  41.2733150  81.3995247  38.1438853  42.1061142  81.3255550
  38.1285901  40.8078132  82.1040506  27.6200236  49.2759022  90.1133492
  28.3209695  49.9095505  90.2662886  27.1495351  49.6173753  89.3529132
  35.7454631  47.6176972  78.3981399  36.0214475  47.5033566  79.3075273
  34.8759130  47.2194457  78.3593572  35.6495063  33.6413737  85.4386149
  34.7358143  33.8717964  85.6068355  36.0788165  33.7252181  86.2900181
  35.4201522  41.8303629  87.9386043  34.7672972  42.0779537  87.2838495
  35.7981901  41.0167768  87.6048520  32.3808695  51.8663322  82.0414213
  32.5631090  51.0484978  82.5041965  33.2041681  52.0831015  81.6039103
  32.7150861  50.7931508  79.3029261  33.2438627  50.2823962  78.6899423
  32.9779081  50.4774038  80.1674794  31.4689095  42.5723440  94.4252080
  30.7929732  42.4717570  95.0954455  32.2916728  42.4162654  94.8888077
  23.2167954  48.8095377  87.0464595  23.8021390  48.0639065  87.1792499
  23.0192792  49.1199334  87.9301259  26.0706609  51.8446624  82.0627037
  25.4016984  52.3292752  81.5791077  25.9319479  52.0915845  82.9770416
  17.8085608  41.3800977  85.7669038  17.8469708  40.8464568  86.5606156
  17.3025901  40.8536183  85.1480015  30.2111877  53.8790368  88.6609696
  30.7630185  54.0421989  89.4258781  30.5518071  54.4694806  87.9889721
  25.1876371  36.2265518  89.2631580  25.2517697  37.0880349  88.8508978
  25.1243491  35.6139519  88.5303939  24.6628643  38.2988650  92.9104615
  25.2900682  37.9165727  93.5242139  23.8056562  38.0802852  93.2760307
  35.0622752  48.7051625  94.5158350  35.6062656  49.3181584  94.0213305
  34.4809597  49.2631204  95.0325363  21.4394186  40.1065079  78.8422969
  21.7347627  39.1975758  78.7890023  20.5382222  40.0852819  78.5203972
  33.3480265  51.8272343  85.6473378  33.2231404  51.0262083  85.1384323
  34.0059356  52.3218537  85.1587348  24.9688433  38.1821076  84.8250518
  24.2475019  38.7957044  84.6857991  25.7581689  38.7178841  84.7467164
  35.4115173  49.6281363  87.2752928  34.4645509  49.5086715  87.2031255
  35.7597946  48.7403861  87.3579189  27.7714746  35.5175502  91.0991170
  28.2949148  35.7637799  91.8617479  27.5527080  36.3495537  90.6794307
  23.1682028  37.7879177  78.9662295  22.8394734  36.9076556  78.7837401
  23.5221398  37.7326846  79.8538684  32.4161606  49.4234080  83.4757280
  32.2686569  48.4950787  83.6564850  33.2415100  49.4454170  82.9914355
  26.2823851  38.0752147  79.3337772  26.6219923  38.6038068  78.6116381
  26.7295971  38.4132553  80.1096339  36.0195728  50.2462638  84.5622153
  36.9442276  50.0405500  84.4246604  35.8511032  49.9979040  85.4711494
  28.9767292  36.4589197  88.7840840  28.6364112  35.6597011  89.1861520
  28.2706298  36.7590908  88.2117674  29.6283763  33.5438510  87.2368163
  30.4509833  33.0698988  87.1147054  29.8721827  34.3228994  87.7366850
  28.2691998  36.5726768  77.5331065  28.9900360  36.9508021  77.0294782
  27.6457302  37.2915645  77.6366043  32.4123121  37.2771917  78.4689397
  32.6286735  38.1596555  78.1678226  31.9317188  36.8858131  77.7395039
  27.1522342  40.2357631  85.0460142  27.0066923  40.5497934  85.9384423
  26.6747546  40.8542531  84.4931041  29.0118725  37.2260179  85.0941032
  28.9980294  36.3301272  84.7573329  29.7291153  37.2330842  85.7279318
  30.8644856  37.6597519  87.1394159  30.6062634  38.5814589  87.1378489
  30.3329896  37.2627953  87.8294623  35.8091044  50.7648306  79.9184244
  35.9827922  50.1994728  79.1658097  36.3019936  51.5649201  79.7363734
  21.6268004  42.7762975  87.9847803  21.0821472  43.5522783  88.1168077
  22.5047354  43.1233779  87.8266925  28.4155621  36.1074559  80.3628602
  28.5371532  35.1791205  80.5619489  28.1257663  36.1213245  79.4506917
  31.2846811  33.7929469  83.4995322  31.3068508  33.8568802  82.5447301
  31.7014870  32.9533978  83.6935828  41.6630436  43.5284729  81.5374544
  42.1061582  42.7792054  81.1393667  40.7856946  43.5194865  81.1548276
  36.7966217  50.0815070  77.0181143  37.4917122  50.7021763  77.2368457
  37.1389367  49.2310421  77.2933521  22.4134026  41.9032871  90.8777960
  21.6715762  42.0515507  91.4642590  22.0926770  42.1641137  90.0144709
  38.6957640  47.5314776  78.5468473  39.2208964  47.8702049  77.8217793
  38.6079993  46.5961791  78.3631608  30.3577689  51.4448849  90.6758350
  30.6664815  51.1997996  91.5481050  31.1553171  51.6495488  90.1877220
  30.3798301  53.5986759  82.9063727  29.9403291  53.1063138  83.5996583
  31.1306418  53.0559727  82.6655802  22.8590640  49.7898300  82.9088355
  23.6848660  49.4902072  82.5286998  22.5084692  49.0205922  83.3578143
  27.8272173  49.1424768  84.9786028  27.2052182  48.4795473  84.6788256
  28.4977040  49.1685900  84.2959676  21.0599245  47.7084626  83.8677288
  20.2231153  47.2806801  83.6861290  21.0322890  47.9017070  84.8048079
  27.8996700  37.6206556  94.5718534  27.9484856  38.4968679  94.1896304
  28.4419215  37.0783949  93.9990177  38.3851546  48.1647679  93.8519671
  37.5947090  48.1471818  93.3124171  38.1484901  48.7035973  94.6068708
  38.5049421  45.0140146  91.1652400  38.5547426  44.8490153  92.1067923
  38.3963345  44.1467405  90.7750281  27.3885680  47.6928691  78.4544489
  27.5373800  48.3764156  77.8011162  28.1952123  47.6733782  78.9693945
  35.7953184  40.9971074  92.4811707  36.6963046  40.8577539  92.1895704
  35.8701158  41.1625529  93.4209884  30.1295989  38.3737929  91.3264893
  29.2599298  38.6671495  91.0547481  30.3655469  38.9578374  92.0472157
  40.0067618  47.4337087  91.4094421  39.7152426  47.7967068  92.2457882
  39.3939749  46.7204096  91.2307754  41.2063300  44.9989967  83.9296992
  42.0410192  45.4379771  84.0934552  41.3422429  44.5228620  83.1105237
  38.2554806  42.5569702  89.8774479  38.7308928  42.7497348  89.0693331
  37.3320372  42.6128888  89.6317863  25.1438313  43.7193869  79.4605558
  24.8984355  42.8156199  79.6585768  25.3134227  43.7211020  78.5185036
  32.8335023  34.5917545  88.8430313  33.3516967  35.3278572  88.5176802
  32.4790156  34.8981539  89.6777072  24.4133960  39.4522227  76.9591719
  23.7203205  39.5266582  76.3031755  24.1685712  38.6882570  77.4813236
  33.0847617  31.0117828  84.3631210  33.3649371  30.3441017  84.9891636
  33.8698224  31.2046924  83.8505874  30.8881085  50.1876822  75.9256236
  30.3155052  50.8067009  75.4726708  31.4613879  50.7376184  76.4596158
  36.9556475  39.4335462  88.1102785  37.9073898  39.5333560  88.1315009
  36.7859926  38.6413731  88.6200869  34.9770855  36.5191045  88.2962186
  34.3820787  36.7996058  87.6008675  34.6920551  37.0084946  89.0678927
  34.1078345  50.4713972  77.0564818  35.0409018  50.4059534  77.2597694
  34.0201558  51.3070239  76.5979351  36.7366362  49.7879842  74.0168766
  36.6579993  49.4539706  74.9104524  37.5576029  50.2801610  74.0160238
  39.4344553  42.6541582  87.2245085  39.4020873  41.7157582  87.4104768
  40.0445177  42.7325618  86.4910910  31.2727884  41.5237635  73.2672289
  32.2186989  41.3943843  73.3360707  30.8942129  40.7852297  73.7441717
  39.5839042  39.4452625  87.2703368  39.0678090  38.6611082  87.0833297
  40.4678990  39.1171342  87.4349887  37.2449768  33.1893641  83.2299181
  37.0474590  32.8808729  84.1142512  37.8549474  33.9155280  83.3597110
  43.3336400  41.8565451  86.9625573  42.6069564  41.7221416  86.3542064
  42.9183687  42.1642280  87.7682291  31.1566576  45.5755381  94.7272946
  32.0769586  45.7533980  94.9212992  31.1216159  44.6311426  94.5752645
  29.4570801  39.4487611  73.2027174  28.5502256  39.1520724  73.2789888
  29.7346782  39.1517429  72.3361460  20.3748741  40.7693974  83.6526220
  20.0551526  39.9159283  83.3600594  19.8282170  40.9842553  84.4084188
  24.1528649  43.4856415  87.3695727  24.3714659  44.4173523  87.3883761
  24.5654423  43.1264390  88.1550531  31.0732867  33.9924501  79.3571415
  30.2633595  33.6471586  79.7326661  31.7617284  33.6832045  79.9459027
  33.0023415  33.0702548  80.9795712  33.5554454  33.4898001  81.6385735
  33.2393501  32.1438296  81.0218668  29.0256514  39.0589621  96.7598476
  28.9253241  40.0083978  96.6910567  28.8078056  38.7307860  95.8874546
  28.2269586  36.3074546  73.3439153  29.0888750  36.6329445  73.6034970
  28.4119930  35.5206042  72.8312219  20.2437001  44.3896886  85.6219342
  19.5500473  43.9750839  85.1089296  20.9909992  44.4317422  85.0252761
  36.3802222  35.1803073  80.4874376  35.8000891  35.8387877  80.1052429
  36.1138155  34.3580417  80.0761794  34.8305789  34.5808130  82.6895696
  35.3305567  34.6924665  81.8810015  35.4741396  34.2769183  83.3296505
  28.8887784  42.4886760  95.5763537  28.4054866  43.2887120  95.7827426
  28.9748723  42.4994705  94.6230981  22.1573744  44.3215140  83.4985357
  22.1344432  44.4202827  82.5467240  22.4674380  45.1680291  83.8202523
  24.8161122  46.3791295  87.6131971  25.7704375  46.3475237  87.5461903
  24.6173645  45.9181919  88.4282197  25.4060504  44.9492411  90.1802769
  26.2253393  45.4436489  90.2037606  25.6797312  44.0324379  90.1520336
  35.1627100  37.3403163  79.5430724  34.2752955  37.6252814  79.3250919
  35.5781089  37.1796927  78.6958001  38.5141636  37.3649684  83.2585064
  39.2902026  37.8546137  83.5309680  37.7889770  37.7907738  83.7156933
  40.9514195  38.0777303  84.3159004  41.5458686  37.8373039  83.6052313
  41.0240779  37.3584434  84.9432541  23.1711351  51.9210914  84.6302169
  23.0365819  51.1611315  84.0640167  22.7543413  52.6451814  84.1630958
  34.3070314  47.1047838  73.6378744  35.0106164  47.3097840  74.2536400
  33.5832962  47.6724600  73.9027828  35.1368124  42.8557699  79.7581015
  35.0803325  43.3126250  78.9188647  35.6896466  42.0948384  79.5803857
  38.9472930  38.6447431  80.5831134  38.6909864  38.2444067  81.4139342
  38.3225798  39.3591225  80.4581273  43.2585268  41.3843504  83.0902425
  42.6984826  41.4536693  83.8633988  42.6528771  41.2084489  82.3701922
  26.3280476  52.8180231  84.8420612  26.2112861  53.7625664  84.7399302
  25.5072923  52.5153793  85.2306411  36.2157011  47.5430367  75.6877204
  37.0502615  47.1111565  75.5054679  36.0541354  47.3712381  76.6154099
  35.8702903  44.0462480  77.0533544  35.8151707  43.8806752  76.1121988
  35.2448958  44.7538513  77.2095733  20.6595418  39.2830545  90.8794966
  21.3054282  38.7729499  91.3682191  20.4512569  40.0199226  91.4538391
  33.1848810  46.3511392  96.3787107  34.0539970  46.5252044  96.0173741
  32.7055562  47.1705809  96.2562836  29.1799029  33.5470589  76.6318862
  29.1677699  34.4912429  76.7887133  30.0722451  33.3640735  76.3378323
  27.3534991  53.4708493  88.0576540  28.2562237  53.5032103  88.3743035
  27.1272361  52.5408944  88.0722876  29.1088593  52.2239480  84.7186619
  28.1584224  52.2241341  84.6050991  29.4121079  51.4772214  84.2022653
  32.9951148  30.1413366  80.8864799  32.2283544  29.5871853  81.0321481
  33.4061853  30.2135235  81.7478951  24.9992909  36.4298162  94.9769980
  25.8624371  36.0734967  95.1873305  24.4258320  36.0912057  95.6645384
  44.8441286  58.0600018  85.7832381  45.4819696  57.9406765  85.0795721
  44.7262129  59.0080862  85.8420333  41.6530992  58.0127446  85.7193906
  41.3149504  57.8968511  84.8314441  42.5220761  57.6118611  85.6994912
  37.5117808  59.8662923  81.7090797  36.9482673  59.7752860  80.9407085
  37.3970203  59.0462827  82.1893289  42.1350775  59.1662298  91.6780111
  42.1239416  58.7715096  90.8060615  42.2971415  58.4328371  92.2713883
  35.0582240  61.3614114  84.5475017  35.8503532  61.0204939  84.1321317
  35.2978890  61.4709089  85.4677171  43.0917367  63.5333890  77.0205262
  42.4405347  64.1187971  76.6339276  43.8861730  64.0640085  77.0800299
  37.0172994  60.6223027  77.4192396  37.7903870  60.0752015  77.2805272
  37.3698393  61.4867277  77.6306857  38.8558037  61.9499410  90.6259295
  38.5647903  62.8545041  90.5105962  39.4915021  61.9915937  91.3403365
  39.7814243  59.3276258  87.2160655  40.3777816  59.1032281  86.5017618
  39.8389215  58.5861004  87.8186103  39.3539272  56.7815694  75.0510846
  39.6064792  56.2597215  74.2894309  38.4163831  56.6181839  75.1537530
  44.3982555  55.7851472  82.8585589  45.1845644  55.3670895  82.5076006
  44.6621259  56.6897564  83.0267238  44.5692632  61.2224322  77.5574246
  43.9338465  61.2958949  78.2695151  44.2390038  61.8117921  76.8793325
  39.0735561  58.6843800  77.2535221  38.9571819  58.0088703  77.9216305
  39.1837820  58.1976173  76.4367374  41.4167101  58.1453947  80.9581910
  41.0525309  57.6184568  81.6694832  42.2734217  57.7552416  80.7848396
  41.0572588  53.1743846  75.9543259  41.2246991  54.0424083  76.3213730
  40.8669758  53.3371128  75.0304548  43.8147922  61.6360825  87.6209089
  43.5148645  62.5385864  87.5124896  43.4698981  61.3693008  88.4730242
  37.2660403  58.0874622  83.6545793  36.3410900  57.9550836  83.8623485
  37.5144816  58.8668841  84.1515736  41.0361809  55.6301504  76.9389926
  40.9161435  56.0758555  77.7775406  40.3414398  55.9786822  76.3803464
  34.6269214  57.7307896  84.4889583  34.7561595  57.9842375  85.4028994
  33.9466665  58.3235604  84.1694238  38.7968701  68.4005146  80.5880057
  38.7192731  69.3512971  80.6668537  38.1930345  68.0551018  81.2454983
  41.2885931  55.5733011  93.2441424  40.5119265  56.1326931  93.2344288
  41.9276494  56.0589794  93.7656294  46.7346875  56.1022977  77.7670260
  47.6464732  56.3350364  77.5917957  46.2256523  56.6860021  77.2045338
  39.5432304  58.3818464  92.8059391  40.2846988  58.9203508  92.5294214
  38.8369289  59.0084753  92.9630942  45.0187643  60.5247605  91.4031552
  45.4270999  60.0830015  90.6586185  44.2964905  59.9500232  91.6565745
  41.3718713  55.4620212  88.7765109  42.2179908  55.8859625  88.9199758
  41.3117351  54.8053836  89.4703672  45.3416458  61.0848795  85.1583841
  44.7125320  61.2494510  84.4559909  44.9542120  61.4990405  85.9294805
  49.2205690  62.0203233  82.5128205  48.5356728  62.4002135  81.9625238
  49.3049539  62.6298560  83.2460153  44.5218159  53.1224580  90.4346283
  44.2779090  53.8766641  89.8980558  44.7978089  53.5009928  91.2693530
  46.4756621  59.6663192  89.1123548  46.6873517  60.3094952  88.4357929
  46.4286370  58.8325509  88.6445478  44.0782850  52.2781013  86.0160120
  43.2167329  52.5762267  86.3076858  44.1045285  52.4951412  85.0841153
  40.8944420  60.8223204  82.4233926  41.3582765  61.1010907  81.6338549
  40.6301218  59.9206648  82.2407017  37.7868501  60.3694685  85.3613689
  38.3569858  60.7981953  84.7231174  38.3776613  60.0877270  86.0597875
  39.8313306  56.9446356  79.2323491  40.5337349  57.3967400  79.6997418
  39.4993934  56.3030175  79.8603384  38.2793667  55.5358113  93.6074701
  37.6492328  56.2174393  93.8410097  38.1729755  55.4241194  92.6627839
  33.5738640  55.2029909  84.5340625  32.7837694  55.4587437  84.0580735
  34.0649887  56.0178246  84.6392665  47.5902449  62.5435148  87.2845906
  48.4119893  62.1415335  87.0028587  47.5864852  62.4403382  88.2362021
  35.5253385  55.5674488  81.4924102  34.7284548  55.6793182  82.0107597
  35.2978977  55.9061140  80.6264992  41.3559053  62.0919191  89.4406616
  41.4203485  62.5539598  90.2764788  40.6469977  61.4616556  89.5688926
  31.8576343  55.4560399  86.9655616  32.1084381  56.3407409  87.2313192
  32.3935891  55.2765001  86.1930707  55.6808442  58.8873896  83.6330877
  54.9272151  58.3181294  83.4774882  55.8155984  58.8536561  84.5801512
  41.0707070  63.7587299  79.3085596  40.9352745  64.6038834  79.7370444
  41.6116883  63.9606576  78.5451530  37.5574410  49.8378878  95.9699952
  37.1641356  49.2845077  96.6447596  38.3740550  50.1489457  96.3606469
  34.5236468  61.2762737  79.8813522  35.0360988  62.0705987  80.0319086
  35.1759181  60.5789027  79.8147123  36.3331352  64.3928493  81.9636275
  36.5097981  65.3146458  81.7757259  37.1288186  64.0786912  82.3930655
  40.4742371  51.2536758  93.5620208  41.2152084  51.8543911  93.4824671
  40.7060294  50.5114395  93.0038251  35.6183709  56.4393125  91.8398438
  35.5037224  55.5378382  92.1405537  34.7628227  56.6856822  91.4883254
  42.6975547  64.3810865  93.4385939  42.2539401  63.5947244  93.1206843
  43.3592760  64.5690016  92.7729829  37.4562668  65.9106667  87.9646617
  38.0070093  65.7823730  87.1923611  36.6174144  66.2101556  87.6141510
  44.7956785  64.6613665  91.4667340  44.7775260  65.4822546  90.9747609
  45.7176705  64.5367740  91.6917481  41.2529839  62.1757794  92.3090848
  41.7858176  61.4146083  92.0790156  40.7243920  61.8831446  93.0515003
  44.4199534  47.2817860  87.8384490  44.0763803  48.1719502  87.7623601
  44.7878497  47.0919518  86.9754075  32.4885385  59.6051391  80.6573092
  33.3260607  60.0148399  80.4406800  32.6663652  58.6650833  80.6273286
  44.3849817  57.2726472  76.3456925  43.8696440  58.0431076  76.5845312
  44.1127125  56.5991608  76.9689987  41.9696928  52.1176172  81.4042163
  41.1138524  51.7283023  81.2247802  42.3823879  52.1968133  80.5441949
  43.4996074  49.6522516  85.8033723  42.9960870  49.6152651  84.9901528
  43.7926681  50.5615258  85.8630380  39.7438960  49.7361245  84.8099905
  40.6091957  49.5404054  84.4505794  39.8116469  49.5071597  85.7369262
  44.1736120  55.1453564  78.1716706  43.8686255  55.4599713  79.0226849
  45.1266562  55.2234984  78.2144039  42.6182552  61.3043787  79.8209660
  42.0903913  60.5696547  79.5082898  42.1170054  62.0818463  79.5749629
  47.5975398  59.4992807  84.9376707  46.9399072  60.1892069  85.0256835
  48.4015797  59.8889239  85.2810693  37.3501279  51.9663453  82.1816272
  37.9245031  51.7438635  81.4489465  37.9372262  52.0352148  82.9344873
  46.4080856  57.8537180  82.9880648  46.9212738  58.4867172  83.4902358
  47.0582080  57.2538376  82.6224008  37.6770866  53.9967914  76.2012157
  36.8408179  54.3342601  76.5221432  37.5375636  53.8616894  75.2639294
  39.6523947  48.8404702  80.9091341  38.9988359  48.5253719  80.2847956
  39.6104421  48.2180443  81.6351164  40.7635152  59.1223997  72.8244633
  39.8562214  58.8913251  73.0235782  41.2606184  58.3261616  73.0118615
  43.6703231  67.8321504  75.7441319  42.9964929  68.1353201  76.3526277
  44.0569053  68.6350585  75.3946776  42.8861687  55.3286636  85.2338989
  41.9684249  55.5501583  85.0760677  43.3021831  55.4032946  84.3750696
  43.6696735  56.7278051  80.3641669  44.4168554  57.2399449  80.0548791
  43.9388325  56.4062104  81.2246063  41.9423385  59.2236592  77.3468623
  41.0334605  58.9395625  77.4441093  41.9718469  59.6435671  76.4871930
  47.1742653  62.8343182  81.1159791  46.7204980  61.9934091  81.1724981
  46.5436619  63.4704580  81.4534571  45.6175592  64.6719678  82.0509609
  45.9098566  65.2324735  81.3321975  46.1274212  64.9648239  82.8062768
  32.5111556  56.9442106  81.3283826  32.3135955  56.3511467  80.6034892
  31.9558220  56.6394316  82.0459764  40.4908279  56.8365213  83.4478419
  40.5456889  55.8839049  83.3720895  39.6799481  56.9924652  83.9319717
  41.6399473  60.7645336  74.6856702  41.2018903  60.0481195  74.2262339
  42.3809914  60.9921451  74.1241793  38.4300639  55.4542272  81.2068798
  37.6168505  55.7536443  81.6133990  38.9259633  55.0597961  81.9243280
  40.5809217  65.4500029  83.1403062  40.5385396  65.6760876  82.2111594
  41.4971916  65.2163404  83.2888863  44.0274851  55.9184097  90.0383691
  44.3824239  56.1455570  90.8978157  44.6746982  56.2502474  89.4160947
  49.7572588  59.0402533  80.7433020  49.6190486  59.2304129  79.8154210
  49.4008807  59.8021916  81.2001072  37.9214714  53.0260628  86.8230033
  38.5614093  52.8849387  86.1252996  37.0892245  52.7395141  86.4468635
  49.7841967  61.1079060  85.7544292  50.2178474  61.0154349  86.6027346
  50.4973548  61.0836560  85.1164308  38.6975018  62.3263058  82.9365025
  39.4915616  61.8313379  82.7347600  37.9866710  61.7980922  82.5732731
  43.5169862  64.7081154  87.2877393  43.5706885  65.2772090  88.0555109
  42.6484644  64.8783039  86.9231430  35.0057781  56.4706140  79.0124778
  34.0755369  56.4090596  79.2294740  35.1015253  55.9482093  78.2161419
  34.9243330  52.9960953  81.6003019  35.1850148  53.9106286  81.4912180
  35.7460503  52.5285396  81.7499632  36.3968256  54.4098710  88.7701844
  37.0691309  54.2016072  88.1214493  35.5698042  54.2120796  88.3307076
  50.6457517  61.1502760  88.2877177  50.8393407  62.0548571  88.5336452
  50.5458135  60.6910180  89.1215762  42.2993828  51.0360651  90.7867505
  41.6521743  51.7350601  90.6931981  43.0694843  51.4696795  91.1543753
  45.7072626  61.3009503  93.8618058  45.5558132  61.0720055  92.9448142
  45.6977305  62.2580105  93.8749403  42.4757962  58.8741416  88.8464324
  43.4050022  59.0252576  88.6733292  42.0548992  58.9625437  87.9912971
  41.2746294  62.8992080  86.6162862  41.1357380  62.5310865  87.4888800
  40.4860890  63.4139720  86.4446820  41.8694446  68.0001177  77.9588399
  42.0446202  67.5289220  78.7734021  41.1827234  68.6266943  78.1869659
  42.8251509  62.2773683  84.0051700  42.4901342  62.2374453  84.9009350
  42.3255455  61.6118399  83.5322110  36.7995753  57.6841313  89.5304281
  36.6615551  56.9521552  90.1315820  37.7100676  57.5950213  89.2488469
  39.4278054  57.3961272  89.0187961  40.1377672  56.7554465  88.9774579
  39.3847362  57.6474167  89.9414141  47.4164832  64.3328626  91.9394540
  47.3577379  63.6487846  91.2725123  47.8184351  65.0747616  91.4875166
  38.1406988  54.3826490  90.8383600  37.6044345  53.9317229  91.4905196
  37.5523696  54.5172399  90.0954064  36.4355531  71.1490540  84.7328259
  36.6752129  71.7809064  85.4107277  35.5924728  70.7978580  85.0193618
  37.5509247  53.8415142  73.4010064  36.6738713  53.7203942  73.0372310
  38.0267000  53.0501220  73.1488952  47.4182240  62.2968210  90.1708520
  46.5309018  61.9594131  90.2934918  47.9880791  61.5651241  90.4077285
  29.0711387  58.6292301  83.4951571  29.7582427  58.3154031  82.9072586
  28.9159515  59.5333666  83.2218822  33.8746109  53.5182498  87.9236595
  33.7904298  52.9108168  87.1887005  33.0528815  54.0091516  87.9246091
  40.9483393  66.9569662  87.1369763  40.8753564  67.7624634  87.6489067
  40.5060786  67.1561628  86.3117784  40.7373173  66.1941432  80.6472584
  39.9540695  66.7363112  80.7410809  41.4365918  66.7115412  81.0466825
  44.0469823  52.0036062  83.2906790  44.5438522  51.2506024  82.9707860
  43.2756804  52.0400378  82.7249999  43.4082077  66.8556496  89.2927921
  44.1210049  67.4903961  89.2203823  42.9172105  66.9520362  88.4767923
  45.1299603  60.7607749  80.8645213  44.1955882  60.8809211  80.6949917
  45.3076272  59.8580216  80.6005223  40.6304791  54.1453445  83.0178474
  40.2602579  53.5924485  83.7059380  41.1263884  53.5411578  82.4653474
  38.4593990  64.6050940  90.1133492  39.1603450  65.2387423  90.2662886
  37.9889105  64.9465671  89.3529132  46.5848386  62.9468889  78.3981399
  46.8608230  62.8325484  79.3075273  45.7152885  62.5486374  78.3593572
  46.2595276  57.1595547  87.9386043  45.6066726  57.4071454  87.2838495
  46.6375656  56.3459685  87.6048520  43.2202450  67.1955240  82.0414213
  43.4024844  66.3776896  82.5041965  44.0435436  67.4122932  81.6039103
  43.5544615  66.1223425  79.3029261  44.0832382  65.6115880  78.6899423
  43.8172835  65.8065956  80.1674794  42.3082849  57.9015358  94.4252080
  41.6323486  57.8009487  95.0954455  43.1310483  57.7454572  94.8888077
  34.0561708  64.1387295  87.0464595  34.6415145  63.3930982  87.1792499
  33.8586547  64.4491251  87.9301259  36.9100363  67.1738542  82.0627037
  36.2410739  67.6584670  81.5791077  36.7713233  67.4207762  82.9770416
  28.6479363  56.7092895  85.7669038  28.6863462  56.1756485  86.5606156
  28.1419656  56.1828100  85.1480015  41.0505632  69.2082286  88.6609696
  41.6023940  69.3713907  89.4258781  41.3911825  69.7986723  87.9889721
  36.0270125  51.5557435  89.2631580  36.0911452  52.4172266  88.8508978
  35.9637245  50.9431437  88.5303939  35.5022398  53.6280568  92.9104615
  36.1294437  53.2457645  93.5242139  34.6450317  53.4094770  93.2760307
  45.9016506  64.0343543  94.5158350  46.4456410  64.6473501  94.0213305
  45.3203351  64.5923121  95.0325363  32.2787940  55.4356997  78.8422969
  32.5741382  54.5267675  78.7890023  31.3775976  55.4144736  78.5203972
  44.1874019  67.1564261  85.6473378  44.0625159  66.3554001  85.1384323
  44.8453110  67.6510454  85.1587348  35.8082187  53.5112994  84.8250518
  35.0868773  54.1248961  84.6857991  36.5975443  54.0470758  84.7467164
  46.2508928  64.9573281  87.2752928  45.3039263  64.8378632  87.2031255
  46.5991701  64.0695779  87.3579189  38.6108501  50.8467420  91.0991170
  39.1342903  51.0929717  91.8617479  38.3920834  51.6787455  90.6794307
  34.0075782  53.1171095  78.9662295  33.6788488  52.2368474  78.7837401
  34.3615153  53.0618763  79.8538684  43.2555361  64.7525997  83.4757280
  43.1080323  63.8242705  83.6564850  44.0808854  64.7746088  82.9914355
  37.1217605  53.4044064  79.3337772  37.4613678  53.9329986  78.6116381
  37.5689726  53.7424471  80.1096339  46.8589483  65.5754556  84.5622153
  47.7836030  65.3697417  84.4246604  46.6904786  65.3270957  85.4711494
  39.8161046  51.7881115  88.7840840  39.4757866  50.9888928  89.1861520
  39.1100052  52.0882826  88.2117674  40.4677518  48.8730428  87.2368163
  41.2903587  48.3990906  87.1147054  40.7115581  49.6520911  87.7366850
  39.1085752  51.9018686  77.5331065  39.8294115  52.2799939  77.0294782
  38.4851056  52.6207563  77.6366043  43.2516875  52.6063835  78.4689397
  43.4680490  53.4888473  78.1678226  42.7710942  52.2150048  77.7395039
  37.9916097  55.5649548  85.0460142  37.8460677  55.8789851  85.9384423
  37.5141300  56.1834449  84.4931041  39.8512479  52.5552096  85.0941032
  39.8374048  51.6593189  84.7573329  40.5684908  52.5622760  85.7279318
  41.7038610  52.9889436  87.1394159  41.4456388  53.9106507  87.1378489
  41.1723651  52.5919871  87.8294623  32.4661759  58.1054893  87.9847803
  31.9215227  58.8814701  88.1168077  33.3441109  58.4525697  87.8266925
  39.2549375  51.4366476  80.3628602  39.3765287  50.5083123  80.5619489
  38.9651418  51.4505162  79.4506917  42.1240566  49.1221387  83.4995322
  42.1462263  49.1860720  82.5447301  42.5408625  48.2825896  83.6935828
  52.5024190  58.8576646  81.5374544  52.9455336  58.1083972  81.1393667
  51.6250700  58.8486783  81.1548276  33.2527781  57.2324789  90.8777960
  32.5109517  57.3807424  91.4642590  32.9320525  57.4933054  90.0144709
  41.1971443  66.7740767  90.6758350  41.5058570  66.5289914  91.5481050
  41.9946925  66.9787406  90.1877220  41.2192055  68.9278677  82.9063727
  40.7797046  68.4355055  83.5996583  41.9700172  68.3851644  82.6655802
  33.6984394  65.1190218  82.9088355  34.5242414  64.8193989  82.5286998
  33.3478446  64.3497840  83.3578143  38.6665927  64.4716686  84.9786028
  38.0445937  63.8087391  84.6788256  39.3370794  64.4977818  84.2959676
  31.8992999  63.0376544  83.8677288  31.0624908  62.6098718  83.6861290
  31.8716645  63.2308987  84.8048079  38.7390455  52.9498474  94.5718534
  38.7878610  53.8260597  94.1896304  39.2812969  52.4075867  93.9990177
  49.2245301  63.4939597  93.8519671  48.4340844  63.4763736  93.3124171
  48.9878655  64.0327891  94.6068708  49.3443176  60.3432063  91.1652400
  49.3941181  60.1782071  92.1067923  49.2357099  59.4759322  90.7750281
  38.2279434  63.0220609  78.4544489  38.3767555  63.7056074  77.8011162
  39.0345878  63.0025699  78.9693945  46.6346938  56.3262991  92.4811707
  47.5356801  56.1869456  92.1895704  46.7094913  56.4917446  93.4209884
  40.9689743  53.7029846  91.3264893  40.0993053  53.9963412  91.0547481
  41.2049224  54.2870291  92.0472157  50.8461373  62.7629005  91.4094421
  50.5546181  63.1258986  92.2457882  50.2333504  62.0496013  91.2307754
  52.0457055  60.3281885  83.9296992  52.8803946  60.7671689  84.0934552
  52.1816184  59.8520538  83.1105237  49.0948561  57.8861620  89.8774479
  49.5702682  58.0789266  89.0693331  48.1714126  57.9420805  89.6317863
  35.9832067  59.0485787  79.4605558  35.7378109  58.1448117  79.6585768
  36.1527982  59.0502937  78.5185036  43.6728777  49.9209463  88.8430313
  44.1910721  50.6570490  88.5176802  43.3183910  50.2273456  89.6777072
  35.2527715  54.7814144  76.9591719  34.5596960  54.8558499  76.3031755
  35.0079467  54.0174488  77.4813236  43.9241371  46.3409746  84.3631210
  44.2043125  45.6732935  84.9891636  44.7091978  46.5338841  83.8505874
  41.7274840  65.5168740  75.9256236  41.1548807  66.1358927  75.4726708
  42.3007634  66.0668101  76.4596158  47.7950230  54.7627380  88.1102785
  48.7467653  54.8625477  88.1315009  47.6253680  53.9705648  88.6200869
  45.8164609  51.8482963  88.2962186  45.2214541  52.1287976  87.6008675
  45.5314306  52.3376864  89.0678927  44.9472100  65.8005890  77.0564818
  45.8802773  65.7351451  77.2597694  44.8595313  66.6362157  76.5979351
  42.1121638  56.8529552  73.2672289  43.0580743  56.7235760  73.3360707
  41.7335883  56.1144214  73.7441717  56.0914857  59.0449506  86.3651121
  56.8218246  58.7834794  86.9258825  55.4821803  58.3078228  86.4053189
  41.9960331  60.9047298  94.7272946  42.9163340  61.0825897  94.9212992
  41.9609914  59.9603344  94.5752645  40.2964556  54.7779529  73.2027174
  39.3896011  54.4812641  73.2789888  40.5740537  54.4809347  72.3361460
  31.2142496  56.0985892  83.6526220  30.8945280  55.2451200  83.3600594
  30.6675924  56.3134470  84.4084188  34.9922403  58.8148333  87.3695727
  35.2108413  59.7465441  87.3883761  35.4048177  58.4556308  88.1550531
  41.9126621  49.3216418  79.3571415  41.1027350  48.9763503  79.7326661
  42.6011038  49.0123962  79.9459027  43.8417170  48.3994465  80.9795712
  44.3948208  48.8189919  81.6385735  44.0787256  47.4730213  81.0218668
  39.8650269  54.3881539  96.7598476  39.7646996  55.3375896  96.6910567
  39.6471811  54.0599778  95.8874546  39.0663340  51.6366464  73.3439153
  39.9282504  51.9621362  73.6034970  39.2513684  50.8497960  72.8312219
  31.0830756  59.7188804  85.6219342  30.3894227  59.3042756  85.1089296
  31.8303747  59.7609340  85.0252761  39.7281539  57.8178678  95.5763537
  39.2448621  58.6179038  95.7827426  39.8142478  57.8286623  94.6230981
  32.9967498  59.6507057  83.4985357  32.9738187  59.7494745  82.5467240
  33.3068135  60.4972208  83.8202523  35.6554876  61.7083212  87.6131971
  36.6098130  61.6767155  87.5461903  35.4567400  61.2473836  88.4282197
  36.2454258  60.2784328  90.1802769  37.0647147  60.7728407  90.2037606
  36.5191066  59.3616297  90.1520336  46.0020855  52.6695081  79.5430724
  45.1146710  52.9544731  79.3250919  46.4174844  52.5088844  78.6958001
  34.0105105  67.2502832  84.6302169  33.8759573  66.4903233  84.0640167
  33.5937167  67.9743732  84.1630958  45.9761878  58.1849617  79.7581015
  45.9197080  58.6418168  78.9188647  46.5290221  57.4240301  79.5803857
  37.1674231  68.1472149  84.8420612  37.0506615  69.0917581  84.7399302
  36.3466677  67.8445711  85.2306411  46.7096658  59.3754398  77.0533544
  46.6545462  59.2098669  76.1121988  46.0842713  60.0830431  77.2095733
  31.4989173  54.6122462  90.8794966  32.1448036  54.1021416  91.3682191
  31.2906324  55.3491144  91.4538391  44.0242565  61.6803310  96.3787107
  44.8933725  61.8543962  96.0173741  43.5449316  62.4997727  96.2562836
  40.0192783  48.8762507  76.6318862  40.0071453  49.8204347  76.7887133
  40.9116205  48.6932652  76.3378323  38.1928745  68.8000411  88.0576540
  39.0955992  68.8324021  88.3743035  37.9666115  67.8700862  88.0722876
  39.9482347  67.5531397  84.7186619  38.9977978  67.5533259  84.6050991
  40.2514833  66.8064132  84.2022653  43.8344903  45.4705284  80.8864799
  43.0677298  44.9163770  81.0321481  44.2455608  45.5427152  81.7478951
  35.8386664  51.7590079  94.9769980  36.7018125  51.4026884  95.1873305
  35.2652074  51.4203974  95.6645384  52.4924747  73.3419364  85.7193906
  52.1543258  73.2260429  84.8314441  53.3614515  72.9410529  85.6994912
  48.3511563  75.1954840  81.7090797  47.7876428  75.1044777  80.9407085
  48.2363958  74.3754745  82.1893289  52.9744530  74.4954216  91.6780111
  52.9633171  74.1007014  90.8060615  53.1365169  73.7620288  92.2713883
  45.8975995  76.6906032  84.5475017  46.6897286  76.3496857  84.1321317
  46.1372645  76.8001007  85.4677171  49.6951791  77.2791327  90.6259295
  49.4041657  78.1836958  90.5105962  50.3308775  77.3207855  91.3403365
  50.6207998  74.6568176  87.2160655  51.2171570  74.4324198  86.5017618
  50.6782969  73.9152921  87.8186103  58.1610157  64.7640197  88.2213176
  57.8293481  65.6335608  87.9974391  57.5655770  64.4476481  88.9007207
  54.6541676  76.9652743  87.6209089  54.3542399  77.8677782  87.5124896
  54.3092736  76.6984926  88.4730242  48.1054158  73.4166540  83.6545793
  47.1804654  73.2842754  83.8623485  48.3538571  74.1960759  84.1515736
  45.4662969  73.0599813  84.4889583  45.5955350  73.3134292  85.4028994
  44.7860420  73.6527521  84.1694238  49.6362456  83.7297063  80.5880057
  49.5586486  84.6804888  80.6668537  49.0324100  83.3842936  81.2454983
  52.1279686  70.9024929  93.2441424  51.3513020  71.4618849  93.2344288
  52.7670249  71.3881712  93.7656294  59.9200466  67.6851722  87.0784400
  59.2774847  67.9784255  86.4324195  59.4155395  67.5704642  87.8837597
  50.3826058  73.7110382  92.8059391  51.1240742  74.2495426  92.5294214
  49.6763043  74.3376671  92.9630942  55.8581398  75.8539523  91.4031552
  56.2664754  75.4121933  90.6586185  55.1358659  75.2792150  91.6565745
  56.1810212  76.4140713  85.1583841  55.5519075  76.5786427  84.4559909
  55.7935874  76.8282323  85.9294805  57.3150376  74.9955110  89.1123548
  57.5267271  75.6386870  88.4357929  57.2680124  74.1617427  88.6445478
  51.7338174  76.1515121  82.4233926  52.1976520  76.4302824  81.6338549
  51.4694972  75.2498566  82.2407017  48.6262255  75.6986603  85.3613689
  49.1963612  76.1273871  84.7231174  49.2170367  75.4169187  86.0597875
  49.1187422  70.8650030  93.6074701  48.4886082  71.5466311  93.8410097
  49.0123510  70.7533112  92.6627839  44.4132394  70.5321826  84.5340625
  43.6231448  70.7879355  84.0580735  44.9043642  71.3470164  84.6392665
  58.4296204  77.8727065  87.2845906  59.2513647  77.4707253  87.0028587
  58.4258607  77.7695300  88.2362021  52.1952807  77.4211109  89.4406616
  52.2597240  77.8831516  90.2764788  51.4863731  76.7908474  89.5688926
  42.6970097  70.7852317  86.9655616  42.9478136  71.6699327  87.2313192
  43.2329646  70.6056918  86.1930707  51.9100825  79.0879216  79.3085596
  51.7746500  79.9330752  79.7370444  52.4510637  79.2898494  78.5451530
  48.3968164  65.1670796  95.9699952  48.0035110  64.6136995  96.6447596
  49.2134305  65.4781375  96.3606469  45.3630222  76.6054654  79.8813522
  45.8754743  77.3997905  80.0319086  46.0152935  75.9080945  79.8147123
  47.1725107  79.7220411  81.9636275  47.3491735  80.6438375  81.7757259
  47.9681940  79.4078830  82.3930655  51.3136125  66.5828675  93.5620208
  52.0545839  67.1835828  93.4824671  51.5454048  65.8406313  93.0038251
  46.4577463  71.7685042  91.8398438  46.3430979  70.8670300  92.1405537
  45.6021981  72.0148739  91.4883254  53.5369301  79.7102783  93.4385939
  53.0933155  78.9239161  93.1206843  54.1986515  79.8981933  92.7729829
  48.2956422  81.2398584  87.9646617  48.8463848  81.1115648  87.1923611
  47.4567898  81.5393473  87.6141510  55.6350539  79.9905583  91.4667340
  55.6169015  80.8114464  90.9747609  56.5570459  79.8659658  91.6917481
  52.0923593  77.5049712  92.3090848  52.6251930  76.7438000  92.0790156
  51.5637675  77.2123364  93.0515003  55.2593288  62.6109778  87.8384490
  54.9157558  63.5011420  87.7623601  55.6272251  62.4211436  86.9754075
  43.3279139  74.9343309  80.6573092  44.1654361  75.3440317  80.4406800
  43.5057407  73.9942751  80.6273286  54.3389829  64.9814433  85.8033723
  53.8354624  64.9444568  84.9901528  54.6320436  65.8907176  85.8630380
  50.5832715  65.0653163  84.8099905  51.4485711  64.8695972  84.4505794
  50.6510224  64.8363515  85.7369262  53.4576306  76.6335705  79.8209660
  52.9297668  75.8988464  79.5082898  52.9563809  77.4110381  79.5749629
  54.5096985  83.1613422  75.7441319  53.8358684  83.4645119  76.3526277
  54.8962807  83.9642502  75.3946776  56.4569346  80.0011596  82.0509609
  56.7492321  80.5616653  81.3321975  56.9667967  80.2940157  82.8062768
  43.3505310  72.2734024  81.3283826  43.1529710  71.6803385  80.6034892
  42.7951974  71.9686234  82.0459764  51.4202972  80.7791947  83.1403062
  51.3779150  81.0052793  82.2111594  52.3365670  80.5455322  83.2888863
  48.7608468  68.3552546  86.8230033  49.4007848  68.2141305  86.1252996
  47.9285999  68.0687059  86.4468635  49.5368772  77.6554976  82.9365025
  50.3309371  77.1605296  82.7347600  48.8260465  77.1272839  82.5732731
  54.3563617  80.0373072  87.2877393  54.4100639  80.6064008  88.0555109
  53.4878398  80.2074957  86.9231430  47.2362010  69.7390628  88.7701844
  47.9085064  69.5307990  88.1214493  46.4091797  69.5412714  88.3307076
  61.4851272  76.4794678  88.2877177  61.6787162  77.3840489  88.5336452
  61.3851890  76.0202097  89.1215762  53.1387582  66.3652569  90.7867505
  52.4915497  67.0642518  90.6931981  53.9088598  66.7988713  91.1543753
  56.5466380  76.6301421  93.8618058  56.3951887  76.4011973  92.9448142
  56.5371060  77.5872022  93.8749403  53.3151717  74.2033334  88.8464324
  54.2443777  74.3544493  88.6733292  52.8942747  74.2917354  87.9912971
  52.1140048  78.2283998  86.6162862  51.9751134  77.8602782  87.4888800
  51.3254645  78.7431637  86.4446820  52.7088200  83.3293095  77.9588399
  52.8839956  82.8581138  78.7734021  52.0220988  83.9558861  78.1869659
  53.6645264  77.6065601  84.0051700  53.3295096  77.5666371  84.9009350
  53.1649209  76.9410317  83.5322110  47.6389507  73.0133231  89.5304281
  47.5009305  72.2813470  90.1315820  48.5494431  72.9242131  89.2488469
  50.2671808  72.7253190  89.0187961  50.9771427  72.0846382  88.9774579
  50.2241116  72.9766085  89.9414141  58.2558587  79.6620543  91.9394540
  58.1971133  78.9779764  91.2725123  58.6578105  80.4039533  91.4875166
  48.9800742  69.7118408  90.8383600  48.4438099  69.2609146  91.4905196
  48.3917451  69.8464317  90.0954064  47.2749286  86.4782457  84.7328259
  47.5145884  87.1100981  85.4107277  46.4318482  86.1270497  85.0193618
  58.2575994  77.6260127  90.1708520  57.3702773  77.2886049  90.2934918
  58.8274545  76.8943159  90.4077285  39.9105141  73.9584219  83.4951571
  40.5976181  73.6445949  82.9072586  39.7553270  74.8625584  83.2218822
  44.7139863  68.8474416  87.9236595  44.6298052  68.2400085  87.1887005
  43.8922570  69.3383434  87.9246091  51.7877148  82.2861580  87.1369763
  51.7147319  83.0916551  87.6489067  51.3454541  82.4853546  86.3117784
  51.5766927  81.5233350  80.6472584  50.7934449  82.0655030  80.7410809
  52.2759672  82.0407329  81.0466825  54.2475831  82.1848414  89.2927921
  54.9603803  82.8195879  89.2203823  53.7565860  82.2812280  88.4767923
  49.2987745  79.9342857  90.1133492  49.9997204  80.5679340  90.2662886
  48.8282860  80.2757589  89.3529132  54.0596204  82.5247158  82.0414213
  54.2418599  81.7068814  82.5041965  54.8829190  82.7414850  81.6039103
  54.3938370  81.4515343  79.3029261  54.9226136  80.9407798  78.6899423
  54.6566589  81.1357873  80.1674794  53.1476604  73.2307276  94.4252080
  52.4717241  73.1301405  95.0954455  53.9704237  73.0746489  94.8888077
  44.8955463  79.4679212  87.0464595  45.4808899  78.7222900  87.1792499
  44.6980301  79.7783169  87.9301259  47.7494118  82.5030460  82.0627037
  47.0804493  82.9876587  81.5791077  47.6106988  82.7499680  82.9770416
  39.4873117  72.0384812  85.7669038  39.5257217  71.5048403  86.5606156
  38.9813410  71.5120018  85.1480015  51.8899386  84.5374203  88.6609696
  52.4417694  84.7005825  89.4258781  52.2305580  85.1278641  87.9889721
  46.8663880  66.8849353  89.2631580  46.9305206  67.7464184  88.8508978
  46.8031000  66.2723355  88.5303939  46.3416152  68.9572486  92.9104615
  46.9688191  68.5749563  93.5242139  45.4844071  68.7386687  93.2760307
  56.7410261  79.3635461  94.5158350  57.2850165  79.9765419  94.0213305
  56.1597106  79.9215039  95.0325363  43.1181695  70.7648915  78.8422969
  43.4135136  69.8559593  78.7890023  42.2169731  70.7436654  78.5203972
  55.0267774  82.4856179  85.6473378  54.9018913  81.6845919  85.1384323
  55.6846865  82.9802372  85.1587348  46.6475942  68.8404911  84.8250518
  45.9262528  69.4540879  84.6857991  47.4369198  69.3762676  84.7467164
  57.0902682  80.2865199  87.2752928  56.1433018  80.1670550  87.2031255
  57.4385455  79.3987697  87.3579189  49.4502255  66.1759338  91.0991170
  49.9736657  66.4221634  91.8617479  49.2314589  67.0079373  90.6794307
  54.0949115  80.0817915  83.4757280  53.9474078  79.1534622  83.6564850
  54.9202609  80.1038006  82.9914355  57.6983237  80.9046474  84.5622153
  58.6229785  80.6989335  84.4246604  57.5298541  80.6562875  85.4711494
  50.6554801  67.1173033  88.7840840  50.3151621  66.3180846  89.1861520
  49.9493807  67.4174744  88.2117674  51.3071272  64.2022345  87.2368163
  52.1297342  63.7282823  87.1147054  51.5509336  64.9812829  87.7366850
  48.8309851  70.8941466  85.0460142  48.6854432  71.2081769  85.9384423
  48.3535055  71.5126366  84.4931041  57.4878553  81.4232141  79.9184244
  57.6615431  80.8578564  79.1658097  57.9807445  82.2233036  79.7363734
  43.3055513  73.4346810  87.9847803  42.7608981  74.2106618  88.1168077
  44.1834863  73.7817615  87.8266925  44.0921535  72.5616707  90.8777960
  43.3503271  72.7099342  91.4642590  43.7714279  72.8224972  90.0144709
  52.0365198  82.1032685  90.6758350  52.3452324  81.8581832  91.5481050
  52.8340680  82.3079323  90.1877220  52.0585810  84.2570594  82.9063727
  51.6190800  83.7646973  83.5996583  52.8093927  83.7143562  82.6655802
  44.5378149  80.4482135  82.9088355  45.3636169  80.1485907  82.5286998
  44.1872201  79.6789758  83.3578143  49.5059682  79.8008603  84.9786028
  48.8839691  79.1379309  84.6788256  50.1764549  79.8269735  84.2959676
  42.7386754  78.3668462  83.8677288  41.9018662  77.9390636  83.6861290
  42.7110399  78.5600905  84.8048079  49.5784209  68.2790392  94.5718534
  49.6272365  69.1552514  94.1896304  50.1206724  67.7367785  93.9990177
  60.0639055  78.8231515  93.8519671  59.2734599  78.8055654  93.3124171
  59.8272410  79.3619808  94.6068708  60.1836930  75.6723981  91.1652400
  60.2334935  75.5073989  92.1067923  60.0750854  74.8051240  90.7750281
  49.0673189  78.3512527  78.4544489  49.2161309  79.0347991  77.8011162
  49.8739632  78.3317617  78.9693945  57.4740693  71.6554909  92.4811707
  58.3750555  71.5161374  92.1895704  57.5488667  71.8209364  93.4209884
  51.8083498  69.0321764  91.3264893  50.9386807  69.3255330  91.0547481
  52.0442978  69.6162209  92.0472157  61.6855127  78.0920923  91.4094421
  61.3939935  78.4550903  92.2457882  61.0727258  77.3787931  91.2307754
  59.9342315  73.2153537  89.8774479  60.4096437  73.4081184  89.0693331
  59.0107881  73.2712723  89.6317863  54.5122532  65.2501381  88.8430313
  55.0304476  65.9862408  88.5176802  54.1577664  65.5565374  89.6777072
  54.7635126  61.6701663  84.3631210  55.0436880  61.0024852  84.9891636
  55.5485733  61.8630759  83.8505874  52.5668594  80.8460657  75.9256236
  51.9942561  81.4650844  75.4726708  53.1401388  81.3960019  76.4596158
  55.7865854  81.1297807  77.0564818  56.7196527  81.0643369  77.2597694
  55.6989067  81.9654074  76.5979351  61.2626551  70.1036460  87.2703368
  60.7465599  69.3194917  87.0833297  62.1466499  69.7755177  87.4349887
  66.9308612  74.3741424  86.3651121  67.6612000  74.1126712  86.9258825
  66.3215557  73.6370146  86.4053189  65.0123909  72.5149286  86.9625573
  64.2857073  72.3805251  86.3542064  64.5971196  72.8226115  87.7682291
  52.8354085  76.2339216  94.7272946  53.7557095  76.4117815  94.9212992
  52.8003668  75.2895262  94.5752645  42.0536250  71.4277810  83.6526220
  41.7339035  70.5743118  83.3600594  41.5069679  71.6426388  84.4084188
  45.8316158  74.1440251  87.3695727  46.0502168  75.0757359  87.3883761
  46.2441932  73.7848225  88.1550531  50.7044023  69.7173457  96.7598476
  50.6040750  70.6667814  96.6910567  50.4865565  69.3891695  95.8874546
  41.9224510  75.0480721  85.6219342  41.2287982  74.6334674  85.1089296
  42.6697501  75.0901258  85.0252761  50.5675293  73.1470595  95.5763537
  50.0842375  73.9470956  95.7827426  50.6536232  73.1578540  94.6230981
  43.8361253  74.9798975  83.4985357  43.8131941  75.0786662  82.5467240
  44.1461889  75.8264126  83.8202523  46.4948631  77.0375130  87.6131971
  47.4491884  77.0059072  87.5461903  46.2961154  76.5765754  88.4282197
  47.0848013  75.6076246  90.1802769  47.9040902  76.1020325  90.2037606
  47.3584821  74.6908214  90.1520336  44.8498860  82.5794750  84.6302169
  44.7153328  81.8195151  84.0640167  44.4330922  83.3035649  84.1630958
  64.9372777  72.0427340  83.0902425  64.3772335  72.1120529  83.8633988
  64.3316280  71.8668324  82.3701922  48.0067985  83.4764067  84.8420612
  47.8900370  84.4209499  84.7399302  47.1860432  83.1737628  85.2306411
  42.3382927  69.9414380  90.8794966  42.9841791  69.4313334  91.3682191
  42.1300078  70.6783062  91.4538391  54.8636319  77.0095228  96.3787107
  55.7327479  77.1835880  96.0173741  54.3843071  77.8289644  96.2562836
  49.0322500  84.1292329  88.0576540  49.9349746  84.1615939  88.3743035
  48.8059870  83.1992779  88.0722876  50.7876102  82.8823315  84.7186619
  49.8371733  82.8825177  84.6050991  51.0908588  82.1356050  84.2022653
  54.6738657  60.7997201  80.8864799  53.9071053  60.2455688  81.0321481
  55.0849362  60.8719070  81.7478951  46.6780418  67.0881997  94.9769980
  47.5411880  66.7318802  95.1873305  46.1045829  66.7495892  95.6645384
  66.5228795  88.7183853  85.7832381  67.1607205  88.5990601  85.0795721
  66.4049638  89.6664697  85.8420333  63.3318501  88.6711282  85.7193906
  62.9937013  88.5552346  84.8314441  64.2008270  88.2702447  85.6994912
  59.1905317  90.5246758  81.7090797  58.6270182  90.4336695  80.9407085
  59.0757712  89.7046662  82.1893289  63.8138284  89.8246133  91.6780111
  63.8026925  89.4298932  90.8060615  63.9758924  89.0912206  92.2713883
  56.7369749  92.0197950  84.5475017  57.5291041  91.6788774  84.1321317
  56.9766399  92.1292925  85.4677171  64.7704876  94.1917726  77.0205262
  64.1192856  94.7771806  76.6339276  65.5649239  94.7223921  77.0800299
  58.6960503  91.2806863  77.4192396  59.4691379  90.7335850  77.2805272
  59.0485902  92.1451112  77.6306857  60.5345546  92.6083245  90.6259295
  60.2435412  93.5128876  90.5105962  61.1702530  92.6499773  91.3403365
  61.4601752  89.9860094  87.2160655  62.0565325  89.7616116  86.5017618
  61.5176724  89.2444839  87.8186103  66.0770064  86.4435307  82.8585589
  66.8633153  86.0254730  82.5076006  66.3408768  87.3481399  83.0267238
  66.2480141  91.8808158  77.5574246  65.6125974  91.9542784  78.2695151
  65.9177547  92.4701756  76.8793325  71.4778491  86.3810541  83.7618568
  72.2103663  85.8109757  83.9956397  70.7217846  85.9932141  84.2025073
  60.7523070  89.3427635  77.2535221  60.6359328  88.6672538  77.9216305
  60.8625329  88.8560009  76.4367374  63.0954610  88.8037782  80.9581910
  62.7312818  88.2768403  81.6694832  63.9521726  88.4136251  80.7848396
  69.0003911  80.0932115  88.2213176  68.6687236  80.9627526  87.9974391
  68.4049524  79.7768399  88.9007207  65.4935431  92.2944661  87.6209089
  65.1936154  93.1969699  87.5124896  65.1486490  92.0276844  88.4730242
  58.9447912  88.7458457  83.6545793  58.0198409  88.6134672  83.8623485
  59.1932325  89.5252677  84.1515736  68.8932574  84.8127201  85.3006526
  67.9849452  84.7442609  85.0065287  68.8420170  85.2899146  86.1288352
  56.3056723  88.3891731  84.4889583  56.4349104  88.6426210  85.4028994
  55.6254174  88.9819439  84.1694238  60.4756210  99.0588981  80.5880057
  60.3980240 100.0096806  80.6668537  59.8717854  98.7134853  81.2454983
  62.9673440  86.2316846  93.2441424  62.1906774  86.7910767  93.2344288
  63.6064003  86.7173629  93.7656294  70.7594221  83.0143639  87.0784400
  70.1168601  83.3076172  86.4324195  70.2549149  82.8996560  87.8837597
  68.4134384  86.7606812  77.7670260  69.3252241  86.9934199  77.5917957
  67.9044032  87.3443857  77.2045338  61.2219812  89.0402300  92.8059391
  61.9634497  89.5787344  92.5294214  60.5156798  89.6668588  92.9630942
  66.6975152  91.1831440  91.4031552  67.1058508  90.7413851  90.6586185
  65.9752414  90.6084068  91.6565745  63.0506222  86.1204047  88.7765109
  63.8967417  86.5443461  88.9199758  62.9904860  85.4637671  89.4703672
  67.0203967  91.7432631  85.1583841  66.3912829  91.9078345  84.4559909
  66.6329629  92.1574240  85.9294805  70.8993199  92.6787069  82.5128205
  70.2144237  93.0585970  81.9625238  70.9837048  93.2882395  83.2460153
  66.2005668  83.7808415  90.4346283  65.9566599  84.5350476  89.8980558
  66.4765598  84.1593763  91.2693530  68.1544130  90.3247028  89.1123548
  68.3661026  90.9678788  88.4357929  68.1073879  89.4909344  88.6445478
  65.7570359  82.9364848  86.0160120  64.8954838  83.2346102  86.3076858
  65.7832794  83.1535247  85.0841153  62.5731929  91.4807039  82.4233926
  63.0370274  91.7594742  81.6338549  62.3088727  90.5790484  82.2407017
  59.4656010  91.0278520  85.3613689  60.0357367  91.4565789  84.7231174
  60.0564122  90.7461105  86.0597875  61.5100815  87.6030191  79.2323491
  62.2124858  88.0551235  79.6997418  61.1781443  86.9614010  79.8603384
  59.9581176  86.1941948  93.6074701  59.3279837  86.8758229  93.8410097
  59.8517264  86.0825030  92.6627839  55.2526149  85.8613744  84.5340625
  54.4625203  86.1171272  84.0580735  55.7437396  86.6762082  84.6392665
  69.2689958  93.2018983  87.2845906  70.0907402  92.7999170  87.0028587
  69.2652361  93.0987217  88.2362021  57.2040894  86.2258323  81.4924102
  56.4072057  86.3377017  82.0107597  56.9766486  86.5644975  80.6264992
  63.0346562  92.7503026  89.4406616  63.0990994  93.2123434  90.2764788
  62.3257486  92.1200391  89.5688926  53.5363852  86.1144234  86.9655616
  53.7871890  86.9991244  87.2313192  54.0723400  85.9348836  86.1930707
  77.3595951  89.5457732  83.6330877  76.6059660  88.9765130  83.4774882
  77.4943492  89.5120396  84.5801512  62.7494579  94.4171134  79.3085596
  62.6140254  95.2622670  79.7370444  63.2904392  94.6190412  78.5451530
  59.2361919  80.4962714  95.9699952  58.8428865  79.9428912  96.6447596
  60.0528059  80.8073292  96.3606469  56.2023977  91.9346572  79.8813522
  56.7148497  92.7289822  80.0319086  56.8546690  91.2372862  79.8147123
  58.0118861  95.0512328  81.9636275  58.1885490  95.9730293  81.7757259
  58.8075695  94.7370747  82.3930655  62.1529880  81.9120593  93.5620208
  62.8939593  82.5127746  93.4824671  62.3847803  81.1698231  93.0038251
  57.2971218  87.0976960  91.8398438  57.1824733  86.1962217  92.1405537
  56.4415736  87.3440657  91.4883254  64.3763056  95.0394700  93.4385939
  63.9326910  94.2531079  93.1206843  65.0380269  95.2273851  92.7729829
  59.1350177  96.5690502  87.9646617  59.6857602  96.4407565  87.1923611
  58.2961653  96.8685391  87.6141510  66.4744294  95.3197500  91.4667340
  66.4562769  96.1406381  90.9747609  67.3964214  95.1951576  91.6917481
  62.9317348  92.8341630  92.3090848  63.4645685  92.0729918  92.0790156
  62.4031429  92.5415282  93.0515003  54.1672893  90.2635226  80.6573092
  55.0048116  90.6732235  80.4406800  54.3451161  89.3234668  80.6273286
  66.0637326  87.9310307  76.3456925  65.5483949  88.7014912  76.5845312
  65.7914634  87.2575443  76.9689987  71.0371600  90.6842662  78.2810099
  70.2601043  90.3453821  77.8365261  71.7163081  90.6895285  77.6065064
  64.2970061  91.9627622  79.8209660  63.7691422  91.2280382  79.5082898
  63.7957563  92.7402299  79.5749629  69.2762907  90.1576643  84.9376707
  68.6186581  90.8475904  85.0256835  70.0803306  90.5473075  85.2810693
  59.0288788  82.6247289  82.1816272  59.6032540  82.4022470  81.4489465
  59.6159771  82.6935983  82.9344873  68.0868365  88.5121015  82.9880648
  68.6000247  89.1451007  83.4902358  68.7369589  87.9122211  82.6224008
  62.4422661  89.7807833  72.8244633  61.5349723  89.5497086  73.0235782
  62.9393693  88.9845452  73.0118615  65.3490740  98.4905340  75.7441319
  64.6752438  98.7937037  76.3526277  65.7356562  99.2934420  75.3946776
  64.5649196  85.9870471  85.2338989  63.6471758  86.2085418  85.0760677
  64.9809340  86.0616782  84.3750696  65.3484244  87.3861887  80.3641669
  66.0956063  87.8983284  80.0548791  65.6175834  87.0645939  81.2246063
  63.6210894  89.8820427  77.3468623  62.7122114  89.5979460  77.4441093
  63.6505978  90.3019506  76.4871930  68.8530162  93.4927017  81.1159791
  68.3992489  92.6517927  81.1724981  68.2224128  94.1288415  81.4534571
  67.2963101  95.3303514  82.0509609  67.5886075  95.8908571  81.3321975
  67.8061721  95.6232075  82.8062768  54.1899065  87.6025942  81.3283826
  53.9923464  87.0095302  80.6034892  53.6345729  87.2978152  82.0459764
  62.1695788  87.4949048  83.4478419  62.2244398  86.5422884  83.3720895
  61.3586990  87.6508487  83.9319717  63.3186982  91.4229171  74.6856702
  62.8806412  90.7065030  74.2262339  64.0597423  91.6505286  74.1241793
  60.1088148  86.1126108  81.2068798  59.2956014  86.4120278  81.6133990
  60.6047142  85.7181797  81.9243280  62.2596726  96.1083865  83.1403062
  62.2172905  96.3344711  82.2111594  63.1759425  95.8747239  83.2888863
  65.7062360  86.5767932  90.0383691  66.0611748  86.8039405  90.8978157
  66.3534491  86.9086309  89.4160947  71.4360097  89.6986368  80.7433020
  71.2977995  89.8887964  79.8154210  71.0796316  90.4605751  81.2001072
  59.6002223  83.6844463  86.8230033  60.2401602  83.5433222  86.1252996
  58.7679754  83.3978977  86.4468635  71.4629476  91.7662895  85.7544292
  71.8965983  91.6738184  86.6027346  72.1761057  91.7420396  85.1164308
  60.3762527  92.9846894  82.9365025  61.1703125  92.4897214  82.7347600
  59.6654219  92.4564757  82.5732731  65.1957371  95.3664989  87.2877393
  65.2494394  95.9355926  88.0555109  64.3272153  95.5366874  86.9231430
  56.6845290  87.1289975  79.0124778  55.7542878  87.0674431  79.2294740
  56.7802762  86.6065928  78.2161419  56.6030839  83.6544788  81.6003019
  56.8637657  84.5690122  81.4912180  57.4248012  83.1869231  81.7499632
  58.0755765  85.0682545  88.7701844  58.7478818  84.8599908  88.1214493
  57.2485551  84.8704631  88.3307076  72.3245026  91.8086596  88.2877177
  72.5180916  92.7132406  88.5336452  72.2245644  91.3494015  89.1215762
  63.9781337  81.6944486  90.7867505  63.3309252  82.3934436  90.6931981
  64.7482352  82.1280630  91.1543753  67.3860135  91.9593339  93.8618058
  67.2345641  91.7303890  92.9448142  67.3764814  92.9163940  93.8749403
  64.1545471  89.5325251  88.8464324  65.0837531  89.6836411  88.6733292
  63.7336501  89.6209272  87.9912971  62.9533803  93.5575916  86.6162862
  62.8144889  93.1894700  87.4888800  62.1648399  94.0723555  86.4446820
  63.5481955  98.6585012  77.9588399  63.7233711  98.1873055  78.7734021
  62.8614743  99.2850778  78.1869659  64.5039018  92.9357518  84.0051700
  64.1688851  92.8958288  84.9009350  64.0042964  92.2702234  83.5322110
  58.4783262  88.3425148  89.5304281  58.3403060  87.6105387  90.1315820
  59.3888185  88.2534049  89.2488469  67.4398210  90.2813553  74.2788760
  66.8227380  89.5560381  74.1821812  66.9714698  91.0422913  73.9355834
  61.1065563  88.0545108  89.0187961  61.8165181  87.4138300  88.9774579
  61.0634871  88.3058003  89.9414141  69.0952341  94.9912461  91.9394540
  69.0364887  94.3071681  91.2725123  69.4971860  95.7331451  91.4875166
  59.8194497  85.0410326  90.8383600  59.2831854  84.5901064  91.4905196
  59.2311205  85.1756234  90.0954064  58.1143040 101.8074375  84.7328259
  58.3539638 102.4392899  85.4107277  57.2712237 101.4562415  85.0193618
  69.0969749  92.9552045  90.1708520  68.2096527  92.6177967  90.2934918
  69.6668300  92.2235076  90.4077285  50.7498896  89.2876137  83.4951571
  51.4369936  88.9737867  82.9072586  50.5947024  90.1917501  83.2218822
  55.5533618  84.1766333  87.9236595  55.4691807  83.5692003  87.1887005
  54.7316324  84.6675352  87.9246091  62.6270902  97.6153497  87.1369763
  62.5541073  98.4208469  87.6489067  62.1848295  97.8145463  86.3117784
  62.4160682  96.8525267  80.6472584  61.6328204  97.3946948  80.7410809
  63.1153427  97.3699247  81.0466825  73.5787089  88.3660262  84.9325081
  73.5676965  89.2484978  84.5619014  72.7104469  88.0131813  84.7379618
  65.0869586  97.5140331  89.2927921  65.7997558  98.1487796  89.2203823
  64.5959614  97.6104197  88.4767923  66.8087112  91.4191584  80.8645213
  65.8743391  91.5393047  80.6949917  66.9863781  90.5164051  80.6005223
  62.3092300  84.8037280  83.0178474  61.9390088  84.2508320  83.7059380
  62.8051393  84.1995413  82.4653474  70.1959664  87.2608903  81.3995247
  70.6620116  88.0936895  81.3255550  70.6467164  86.7953885  82.1040506
  60.1381499  95.2634775  90.1133492  60.8390959  95.8971258  90.2662886
  59.6676614  95.6049506  89.3529132  68.2635895  93.6052725  78.3981399
  68.5395739  93.4909319  79.3075273  67.3940394  93.2070210  78.3593572
  67.9382785  87.8179382  87.9386043  67.2854235  88.0655290  87.2838495
  68.3163165  87.0043521  87.6048520  64.8989959  97.8539076  82.0414213
  65.0812353  97.0360731  82.5041965  65.7222945  98.0706768  81.6039103
  65.2332124  96.7807261  79.3029261  65.7619891  96.2699715  78.6899423
  65.4960344  96.4649791  80.1674794  63.9870358  88.5599193  94.4252080
  63.3110995  88.4593323  95.0954455  64.8097992  88.4038407  94.8888077
  55.7349217  94.7971130  87.0464595  56.3202654  94.0514818  87.1792499
  55.5374056  95.1075087  87.9301259  58.5887872  97.8322377  82.0627037
  57.9198248  98.3168505  81.5791077  58.4500742  98.0791598  82.9770416
  50.3266872  87.3676730  85.7669038  50.3650971  86.8340321  86.5606156
  49.8207165  86.8411936  85.1480015  62.7293141  99.8666121  88.6609696
  63.2811449 100.0297742  89.4258781  63.0699334 100.4570559  87.9889721
  57.7057634  82.2141271  89.2631580  57.7698961  83.0756102  88.8508978
  57.6424754  81.6015272  88.5303939  57.1809907  84.2864403  92.9104615
  57.8081945  83.9041481  93.5242139  56.3237826  84.0678605  93.2760307
  67.5804015  94.6927378  94.5158350  68.1243919  95.3057337  94.0213305
  66.9990860  95.2506957  95.0325363  53.9575449  86.0940832  78.8422969
  54.2528891  85.1851511  78.7890023  53.0563485  86.0728572  78.5203972
  65.8661528  97.8148096  85.6473378  65.7412668  97.0137836  85.1384323
  66.5240619  98.3094290  85.1587348  57.4869696  84.1696829  84.8250518
  56.7656282  84.7832797  84.6857991  58.2762952  84.7054594  84.7467164
  67.9296437  95.6157116  87.2752928  66.9826772  95.4962468  87.2031255
  68.2779210  94.7279615  87.3579189  60.2896010  81.5051255  91.0991170
  60.8130412  81.7513552  91.8617479  60.0708343  82.3371290  90.6794307
  55.6863291  83.7754930  78.9662295  55.3575997  82.8952309  78.7837401
  56.0402662  83.7202599  79.8538684  64.9342870  95.4109833  83.4757280
  64.7867832  94.4826540  83.6564850  65.7596363  95.4329923  82.9914355
  58.8005114  84.0627900  79.3337772  59.1401187  84.5913821  78.6116381
  59.2477235  84.4008306  80.1096339  68.5376992  96.2338391  84.5622153
  69.4623539  96.0281253  84.4246604  68.3692295  95.9854793  85.4711494
  61.4948555  82.4464950  88.7840840  61.1545375  81.6472764  89.1861520
  60.7887561  82.7466661  88.2117674  62.1465027  79.5314263  87.2368163
  62.9691096  79.0574741  87.1147054  62.3903090  80.3104747  87.7366850
  59.6703606  86.2233384  85.0460142  59.5248186  86.5373687  85.9384423
  59.1928809  86.8418284  84.4931041  61.5299988  83.2135932  85.0941032
  61.5161557  82.3177025  84.7573329  62.2472417  83.2206595  85.7279318
  63.3826119  83.6473272  87.1394159  63.1243897  84.5690342  87.1378489
  62.8511160  83.2503706  87.8294623  68.3272308  96.7524059  79.9184244
  68.5009185  96.1870481  79.1658097  68.8201199  97.5524954  79.7363734
  54.1449268  88.7638728  87.9847803  53.6002736  89.5398536  88.1168077
  55.0228618  89.1109532  87.8266925  74.1811699  89.5160482  81.5374544
  74.6242845  88.7667807  81.1393667  73.3038209  89.5070618  81.1548276
  69.3147480  96.0690823  77.0181143  70.0098385  96.6897516  77.2368457
  69.6570631  95.2186174  77.2933521  54.9315290  87.8908624  90.8777960
  54.1897026  88.0391260  91.4642590  54.6108034  88.1516890  90.0144709
  71.2138904  93.5190529  78.5468473  71.7390228  93.8577802  77.8217793
  71.1261256  92.5837544  78.3631608  62.8758952  97.4324602  90.6758350
  63.1846079  97.1873749  91.5481050  63.6734434  97.6371241  90.1877220
  62.8979564  99.5862512  82.9063727  62.4584555  99.0938891  83.5996583
  63.6487681  99.0435480  82.6655802  55.3771903  95.7774053  82.9088355
  56.2029923  95.4777825  82.5286998  55.0265955  95.0081675  83.3578143
  60.3453436  95.1300521  84.9786028  59.7233446  94.4671226  84.6788256
  61.0158303  95.1561653  84.2959676  53.5780508  93.6960379  83.8677288
  52.7412417  93.2682554  83.6861290  53.5504154  93.8892823  84.8048079
  60.4177964  83.6082309  94.5718534  60.4666119  84.4844432  94.1896304
  60.9600478  83.0659702  93.9990177  70.9032810  94.1523432  93.8519671
  70.1128353  94.1347571  93.3124171  70.6666164  94.6911726  94.6068708
  71.0230685  91.0015899  91.1652400  71.0728690  90.8365906  92.1067923
  70.9144608  90.1343158  90.7750281  59.9066943  93.6804445  78.4544489
  60.0555064  94.3639909  77.8011162  60.7133387  93.6609535  78.9693945
  68.3134447  86.9846827  92.4811707  69.2144310  86.8453292  92.1895704
  68.3882422  87.1501282  93.4209884  62.6477252  84.3613682  91.3264893
  61.7780562  84.6547248  91.0547481  62.8836733  84.9454127  92.0472157
  72.5248881  93.4212840  91.4094421  72.2333690  93.7842821  92.2457882
  71.9121013  92.7079849  91.2307754  73.7244564  90.9865720  83.9296992
  74.5591455  91.4255524  84.0934552  73.8603693  90.5104373  83.1105237
  70.7736070  88.5445455  89.8774479  71.2490191  88.7373101  89.0693331
  69.8501635  88.6004641  89.6317863  57.6619576  89.7069622  79.4605558
  57.4165618  88.8031952  79.6585768  57.8315491  89.7086773  78.5185036
  65.3516286  80.5793299  88.8430313  65.8698230  81.3154325  88.5176802
  64.9971419  80.8857292  89.6777072  56.9315224  85.4397980  76.9591719
  56.2384469  85.5142335  76.3031755  56.6866976  84.6758323  77.4813236
  63.4062349  96.1752575  75.9256236  62.8336316  96.7942762  75.4726708
  63.9795143  96.7251937  76.4596158  69.4737739  85.4211215  88.1102785
  70.4255162  85.5209313  88.1315009  69.3041189  84.6289484  88.6200869
  67.4952118  82.5066798  88.2962186  66.9002050  82.7871811  87.6008675
  67.2101815  82.9960699  89.0678927  66.6259609  96.4589725  77.0564818
  67.5590282  96.3935287  77.2597694  66.5382821  97.2945992  76.5979351
  69.2547625  95.7755595  74.0168766  69.1761257  95.4415459  74.9104524
  70.0757292  96.2677363  74.0160238  71.9525817  88.6417335  87.2245085
  71.9202137  87.7033335  87.4104768  72.5626440  88.7201371  86.4910910
  63.7909147  87.5113388  73.2672289  64.7368252  87.3819596  73.3360707
  63.4123392  86.7728050  73.7441717  72.1020305  85.4328378  87.2703368
  71.5859354  84.6486835  87.0833297  72.9860254  85.1047095  87.4349887
  77.7702366  89.7033342  86.3651121  78.5005755  89.4418630  86.9258825
  77.1609312  88.9662064  86.4053189  75.8517663  87.8441204  86.9625573
  75.1250827  87.7097169  86.3542064  75.4364950  88.1518033  87.7682291
  63.6747840  91.5631134  94.7272946  64.5950849  91.7409733  94.9212992
  63.6397423  90.6187179  94.5752645  52.8930005  86.7569728  83.6526220
  52.5732789  85.9035036  83.3600594  52.3463433  86.9718306  84.4084188
  56.6709912  89.4732169  87.3695727  56.8895922  90.4049276  87.3883761
  57.0835686  89.1140143  88.1550531  61.5437778  85.0465374  96.7598476
  61.4434505  85.9959731  96.6910567  61.3259320  84.7183613  95.8874546
  52.7618265  90.3772639  85.6219342  52.0681736  89.9626592  85.1089296
  53.5091256  90.4193176  85.0252761  61.4069048  88.4762513  95.5763537
  60.9236130  89.2762873  95.7827426  61.4929987  88.4870458  94.6230981
  54.6755007  90.3090893  83.4985357  54.6525696  90.4078580  82.5467240
  54.9855644  91.1556044  83.8202523  57.3342385  92.3667048  87.6131971
  58.2885639  92.3350990  87.5461903  57.1354909  91.9057672  88.4282197
  57.9241767  90.9368164  90.1802769  58.7434656  91.4312243  90.2037606
  58.1978575  90.0200132  90.1520336  73.4695458  84.0653056  84.3159004
  74.0639949  83.8248792  83.6052313  73.5422042  83.3460187  84.9432541
  55.6892614  97.9086667  84.6302169  55.5547082  97.1487068  84.0640167
  55.2724676  98.6327567  84.1630958  66.8251577  93.0923591  73.6378744
  67.5287427  93.2973593  74.2536400  66.1014226  93.6600353  73.9027828
  67.6549387  88.8433452  79.7581015  67.5984589  89.3002004  78.9188647
  68.2077730  88.0824137  79.5803857  75.7766531  87.3719257  83.0902425
  75.2166089  87.4412447  83.8633988  75.1710035  87.1960242  82.3701922
  58.8461740  98.8055984  84.8420612  58.7294124  99.7501417  84.7399302
  58.0254186  98.5029546  85.2306411  68.7338275  93.5306120  75.6877204
  69.5683878  93.0987319  75.5054679  68.5722617  93.3588134  76.6154099
  68.3884167  90.0338233  77.0533544  68.3332970  89.8682505  76.1121988
  67.7630222  90.7414266  77.2095733  53.1776682  85.2706298  90.8794966
  53.8235545  84.7605252  91.3682191  52.9693833  86.0074979  91.4538391
  65.7030074  92.3387145  96.3787107  66.5721234  92.5127797  96.0173741
  65.2236825  93.1581562  96.2562836  59.8716254  99.4584246  88.0576540
  60.7743501  99.4907856  88.3743035  59.6453624  98.5284697  88.0722876
  61.6269856  98.2115233  84.7186619  60.6765487  98.2117094  84.6050991
  61.9302342  97.4647967  84.2022653  57.5174173  82.4173915  94.9769980
  58.3805634  82.0610720  95.1873305  56.9439583  82.0787810  95.6645384
  77.3622550 104.0475771  85.7832381  78.0000960 103.9282518  85.0795721
  77.2443392 104.9956615  85.8420333  74.1712256 104.0003199  85.7193906
  73.8330767 103.8844264  84.8314441  75.0402024 103.5994364  85.6994912
  70.0299072 105.8538676  81.7090797  69.4663937 105.7628613  80.9407085
  69.9151467 105.0338580  82.1893289  74.6532039 105.1538051  91.6780111
  74.6420680 104.7590849  90.8060615  74.8152678 104.4204124  92.2713883
  67.5763504 107.3489867  84.5475017  68.3684795 107.0080692  84.1321317
  67.8160154 107.4584842  85.4677171  75.6098630 109.5209643  77.0205262
  74.9586610 110.1063724  76.6339276  76.4042993 110.0515838  77.0800299
  69.5354257 106.6098781  77.4192396  70.3085133 106.0627768  77.2805272
  69.8879656 107.4743030  77.6306857  71.3739300 107.9375163  90.6259295
  71.0829166 108.8420794  90.5105962  72.0096284 107.9791690  91.3403365
  72.2995507 105.3152011  87.2160655  72.8959079 105.0908034  86.5017618
  72.3570478 104.5736757  87.8186103  71.8720535 102.7691447  75.0510846
  72.1246056 102.2472968  74.2894309  70.9345094 102.6057592  75.1537530
  76.9163818 101.7727225  82.8585589  77.7026907 101.3546648  82.5076006
  77.1802522 102.6773317  83.0267238  77.0873895 107.2100075  77.5574246
  76.4519728 107.2834702  78.2695151  76.7571302 107.7993674  76.8793325
  82.3172245 101.7102458  83.7618568  83.0497417 101.1401675  83.9956397
  81.5611601 101.3224059  84.2025073  71.5916824 104.6719553  77.2535221
  71.4753082 103.9964456  77.9216305  71.7019084 104.1851927  76.4367374
  73.9348365 104.1329700  80.9581910  73.5706572 103.6060321  81.6694832
  74.7915481 103.7428169  80.7848396  79.8397666  95.4224032  88.2213176
  79.5080990  96.2919443  87.9974391  79.2443279  95.1060316  88.9007207
  73.5753852  99.1619599  75.9543259  73.7428254 100.0299836  76.3213730
  73.3851021  99.3246881  75.0304548  76.3329185 107.6236578  87.6209089
  76.0329908 108.5261617  87.5124896  75.9880245 107.3568762  88.4730242
  69.7841667 104.0750375  83.6545793  68.8592163 103.9426589  83.8623485
  70.0326080 104.8544594  84.1515736  79.7326329 100.1419118  85.3006526
  78.8243206 100.0734527  85.0065287  79.6813925 100.6191063  86.1288352
  73.5543073 101.6177257  76.9389926  73.4342698 102.0634308  77.7775406
  72.8595661 101.9662575  76.3803464  67.1450478 103.7183649  84.4889583
  67.2742859 103.9718128  85.4028994  66.4647929 104.3111357  84.1694238
  71.3149965 114.3880899  80.5880057  71.2373995 115.3388724  80.6668537
  70.7111608 114.0426771  81.2454983  73.8067195 101.5608764  93.2441424
  73.0300529 102.1202684  93.2344288  74.4457758 102.0465547  93.7656294
  81.5987975  98.3435557  87.0784400  80.9562356  98.6368090  86.4324195
  81.0942904  98.2288477  87.8837597  79.2528139 102.0898730  77.7670260
  80.1645995 102.3226117  77.5917957  78.7437786 102.6735774  77.2045338
  72.0613567 104.3694217  92.8059391  72.8028251 104.9079261  92.5294214
  71.3550552 104.9960506  92.9630942  77.5368907 106.5123358  91.4031552
  77.9452263 106.0705768  90.6586185  76.8146168 105.9375985  91.6565745
  73.8899977 101.4495965  88.7765109  74.7361172 101.8735378  88.9199758
  73.8298614 100.7929589  89.4703672  77.8597721 107.0724549  85.1583841
  77.2306584 107.2370263  84.4559909  77.4723383 107.4866158  85.9294805
  81.7386953 108.0078986  82.5128205  81.0537991 108.3877888  81.9625238
  81.8230802 108.6174313  83.2460153  77.0399422  99.1100333  90.4346283
  76.7960354  99.8642394  89.8980558  77.3159353  99.4885681  91.2693530
  78.9937885 105.6538945  89.1123548  79.2054780 106.2970705  88.4357929
  78.9467633 104.8201262  88.6445478  76.5964114  98.2656766  86.0160120
  75.7348593  98.5638020  86.3076858  76.6226548  98.4827165  85.0841153
  73.4125683 106.8098957  82.4233926  73.8764029 107.0886660  81.6338549
  73.1482481 105.9082401  82.2407017  70.3049764 106.3570438  85.3613689
  70.8751121 106.7857707  84.7231174  70.8957876 106.0753023  86.0597875
  72.3494569 102.9322109  79.2323491  73.0518613 103.3843153  79.6997418
  72.0175198 102.2905928  79.8603384  70.7974931 101.5233866  93.6074701
  70.1673591 102.2050146  93.8410097  70.6911019 101.4116947  92.6627839
  66.0919903 101.1905662  84.5340625  65.3018957 101.4463190  84.0580735
  66.5831151 102.0053999  84.6392665  80.1083713 108.5310901  87.2845906
  80.9301156 108.1291088  87.0028587  80.1046116 108.4279135  88.2362021
  68.0434649 101.5550241  81.4924102  67.2465812 101.6668935  82.0107597
  67.8160241 101.8936893  80.6264992  73.8740316 108.0794944  89.4406616
  73.9384749 108.5415351  90.2764788  73.1651240 107.4492309  89.5688926
  64.3757606 101.4436152  86.9655616  64.6265645 102.3283162  87.2313192
  64.9117155 101.2640754  86.1930707  88.1989706 104.8749649  83.6330877
  87.4453414 104.3057047  83.4774882  88.3337247 104.8412314  84.5801512
  73.5888334 109.7463052  79.3085596  73.4534009 110.5914587  79.7370444
  74.1298146 109.9482329  78.5451530  70.0755673  95.8254631  95.9699952
  69.6822619  95.2720830  96.6447596  70.8921814  96.1365210  96.3606469
  67.0417731 107.2638490  79.8813522  67.5542252 108.0581740  80.0319086
  67.6940444 106.5664780  79.8147123  68.8512616 110.3804246  81.9636275
  69.0279244 111.3022211  81.7757259  69.6469449 110.0662665  82.3930655
  72.9923634  97.2412511  93.5620208  73.7333348  97.8419664  93.4824671
  73.2241557  96.4990148  93.0038251  68.1364972 102.4268878  91.8398438
  68.0218488 101.5254135  92.1405537  67.2809490 102.6732575  91.4883254
  69.9743931 111.8982420  87.9646617  70.5251356 111.7699483  87.1923611
  69.1355407 112.1977309  87.6141510  73.7711102 108.1633548  92.3090848
  74.3039439 107.4021836  92.0790156  73.2425184 107.8707199  93.0515003
  76.9380797  93.2693613  87.8384490  76.5945067  94.1595255  87.7623601
  77.3059760  93.0795271  86.9754075  65.0066648 105.5927144  80.6573092
  65.8441870 106.0024152  80.4406800  65.1844916 104.6526586  80.6273286
  76.9031080 103.2602225  76.3456925  76.3877704 104.0306829  76.5845312
  76.6308389 102.5867361  76.9689987  74.4878191  98.1051925  81.4042163
  73.6319787  97.7158776  81.2247802  74.9005143  98.1843886  80.5441949
  76.0177338  95.6398269  85.8033723  75.5142133  95.6028404  84.9901528
  76.3107945  96.5491011  85.8630380  72.2620224  95.7236998  84.8099905
  73.1273220  95.5279807  84.4505794  72.3297733  95.4947350  85.7369262
  81.8765354 106.0134579  78.2810099  81.0994797 105.6745739  77.8365261
  82.5556835 106.0187202  77.6065064  76.6917383 101.1329317  78.1716706
  76.3867519 101.4475466  79.0226849  77.6447825 101.2110737  78.2144039
  75.1363815 107.2919540  79.8209660  74.6085177 106.5572300  79.5082898
  74.6351318 108.0694216  79.5749629  80.1156661 105.4868560  84.9376707
  79.4580336 106.1767822  85.0256835  80.9197060 105.8764992  85.2810693
  69.8682543  97.9539206  82.1816272  70.4426295  97.7314388  81.4489465
  70.4553525  98.0227901  82.9344873  78.9262120 103.8412933  82.9880648
  79.4394002 104.4742925  83.4902358  79.5763344 103.2414129  82.6224008
  70.1952130  99.9843667  76.2012157  69.3589442 100.3218354  76.5221432
  70.0556899  99.8492647  75.2639294  72.1705210  94.8280455  80.9091341
  71.5169623  94.5129472  80.2847956  72.1285685  94.2056196  81.6351164
  73.2816415 105.1099750  72.8244633  72.3743477 104.8789004  73.0235782
  73.7787447 104.3137370  73.0118615  76.1884494 113.8197257  75.7441319
  75.5146193 114.1228954  76.3526277  76.5750316 114.6226338  75.3946776
  75.4042951 101.3162389  85.2338989  74.4865512 101.5377336  85.0760677
  75.8203094 101.3908699  84.3750696  76.1877999 102.7153804  80.3641669
  76.9349818 103.2275202  80.0548791  76.4569588 102.3937857  81.2246063
  74.4604649 105.2112345  77.3468623  73.5515868 104.9271378  77.4441093
  74.4899733 105.6311424  76.4871930  79.6923916 108.8218935  81.1159791
  79.2386243 107.9809845  81.1724981  79.0617883 109.4580333  81.4534571
  78.6356836  99.7510921  82.3460458  77.8979593  99.2388307  82.6770701
  78.8883609  99.3111302  81.5343735  78.1356855 110.6595431  82.0509609
  78.4279830 111.2200488  81.3321975  78.6455476 110.9523992  82.8062768
  78.7368463  92.5287173  82.9402228  79.0427340  91.6684536  82.6528143
  79.4621068  93.1204793  82.7401222  65.0292819 102.9317859  81.3283826
  64.8317219 102.3387220  80.6034892  64.4739483 102.6270069  82.0459764
  73.0089543 102.8240966  83.4478419  73.0638153 101.8714802  83.3720895
  72.1980745 102.9800405  83.9319717  74.1580737 106.7521089  74.6856702
  73.7200166 106.0356948  74.2262339  74.8991177 106.9797204  74.1241793
  70.9481903 101.4418025  81.2068798  70.1349768 101.7412196  81.6133990
  71.4440897 101.0473714  81.9243280  73.0990481 111.4375782  83.1403062
  73.0566659 111.6636629  82.2111594  74.0153179 111.2039157  83.2888863
  76.5456114 101.9059850  90.0383691  76.9005502 102.1331323  90.8978157
  77.1928246 102.2378227  89.4160947  82.2753851 105.0278286  80.7433020
  82.1371750 105.2179882  79.8154210  81.9190070 105.7897669  81.2001072
  70.4395977  99.0136381  86.8230033  71.0795357  98.8725140  86.1252996
  69.6073508  98.7270894  86.4468635  82.3023231 107.0954813  85.7544292
  82.7359738 107.0030102  86.6027346  83.0154812 107.0712313  85.1164308
  71.2156281 108.3138811  82.9365025  72.0096880 107.8189132  82.7347600
  70.5047974 107.7856675  82.5732731  76.0351126 110.6956907  87.2877393
  76.0888148 111.2647843  88.0555109  75.1665907 110.8658792  86.9231430
  67.5239045 102.4581893  79.0124778  66.5936633 102.3966349  79.2294740
  67.6196517 101.9357846  78.2161419  67.4424594  98.9836706  81.6003019
  67.7031411  99.8982039  81.4912180  68.2641766  98.5161149  81.7499632
  68.9149519 100.3974463  88.7701844  69.5872573 100.1891825  88.1214493
  68.0879306 100.1996549  88.3307076  83.1638780 107.1378513  88.2877177
  83.3574671 108.0424324  88.5336452  83.0639399 106.6785933  89.1215762
  74.8175091  97.0236404  90.7867505  74.1703006  97.7226354  90.6931981
  75.5876107  97.4572548  91.1543753  74.9939226 104.8617169  88.8464324
  75.9231286 105.0128329  88.6733292  74.5730256 104.9501190  87.9912971
  73.7927557 108.8867833  86.6162862  73.6538643 108.5186618  87.4888800
  73.0042154 109.4015473  86.4446820  74.3875709 113.9876930  77.9588399
  74.5627465 113.5164973  78.7734021  73.7008497 114.6142696  78.1869659
  75.3432773 108.2649436  84.0051700  75.0082605 108.2250206  84.9009350
  74.8436718 107.5994152  83.5322110  69.3177016 103.6717066  89.5304281
  69.1796814 102.9397305  90.1315820  70.2281940 103.5825966  89.2488469
  78.2791964 105.6105470  74.2788760  77.6621135 104.8852299  74.1821812
  77.8108453 106.3714831  73.9355834  71.9459317 103.3837025  89.0187961
  72.6558936 102.7430218  88.9774579  71.9028625 103.6349920  89.9414141
  70.6588251 100.3702243  90.8383600  70.1225608  99.9192982  91.4905196
  70.0704960 100.5048152  90.0954064  68.9536795 117.1366293  84.7328259
  69.1933393 117.7684817  85.4107277  68.1105991 116.7854333  85.0193618
  70.0690510  99.8290895  73.4010064  69.1919976  99.7079696  73.0372310
  70.5448263  99.0376973  73.1488952  79.9363503 108.2843963  90.1708520
  79.0490282 107.9469885  90.2934918  80.5062054 107.5526994  90.4077285
  61.5892650 104.6168054  83.4951571  62.2763690 104.3029785  82.9072586
  61.4340779 105.5209419  83.2218822  66.3927372  99.5058251  87.9236595
  66.3085561  98.8983921  87.1887005  65.5710079  99.9967269  87.9246091
  73.4664656 112.9445415  87.1369763  73.3934828 113.7500387  87.6489067
  73.0242050 113.1437381  86.3117784  73.2554436 112.1817185  80.6472584
  72.4721958 112.7238865  80.7410809  73.9547181 112.6991165  81.0466825
  76.5651086  97.9911815  83.2906790  77.0619786  97.2381777  82.9707860
  75.7938068  98.0276131  82.7249999  84.4180844 103.6952180  84.9325081
  84.4070720 104.5776896  84.5619014  83.5498223 103.3423731  84.7379618
  77.6480867 106.7483502  80.8645213  76.7137146 106.8684964  80.6949917
  77.8257535 105.8455969  80.6005223  73.1486055 100.1329198  83.0178474
  72.7783842  99.5800238  83.7059380  73.6445147  99.5287331  82.4653474
  81.0353418 102.5900821  81.3995247  81.5013870 103.4228813  81.3255550
  81.4860919 102.1245803  82.1040506  70.9775254 110.5926693  90.1133492
  71.6784713 111.2263176  90.2662886  70.5070369 110.9341424  89.3529132
  79.1029649 108.9344642  78.3981399  79.3789493 108.8201237  79.3075273
  78.2334148 108.5362127  78.3593572  79.0070081  94.9581408  85.4386149
  78.0933161  95.1885635  85.6068355  79.4363182  95.0419852  86.2900181
  78.7776540 103.1471300  87.9386043  78.1247990 103.3947207  87.2838495
  79.1556919 102.3335438  87.6048520  75.7383713 113.1830993  82.0414213
  75.9206108 112.3652649  82.5041965  76.5616699 113.3998685  81.6039103
  76.0725879 112.1099178  79.3029261  76.6013645 111.5991633  78.6899423
  76.3354098 111.7941709  80.1674794  74.8264113 103.8891111  94.4252080
  74.1504750 103.7885240  95.0954455  75.6491746 103.7330325  94.8888077
  66.5742972 110.1263048  87.0464595  67.1596408 109.3806736  87.1792499
  66.3767810 110.4367004  87.9301259  69.4281627 113.1614295  82.0627037
  68.7592002 113.6460423  81.5791077  69.2894497 113.4083515  82.9770416
  61.1660626 102.6968648  85.7669038  61.2044726 102.1632239  86.5606156
  60.6600919 102.1703853  85.1480015  68.5451389  97.5433188  89.2631580
  68.6092715  98.4048019  88.8508978  68.4818509  96.9307190  88.5303939
  68.0203661  99.6156321  92.9104615  68.6475700  99.2333398  93.5242139
  67.1631580  99.3970523  93.2760307  64.7969204 101.4232750  78.8422969
  65.0922645 100.5143428  78.7890023  63.8957240 101.4020489  78.5203972
  76.7055283 113.1440014  85.6473378  76.5806422 112.3429754  85.1384323
  77.3634374 113.6386207  85.1587348  68.3263451  99.4988747  84.8250518
  67.6050037 100.1124714  84.6857991  69.1156707 100.0346511  84.7467164
  78.7690191 110.9449034  87.2752928  77.8220527 110.8254385  87.2031255
  79.1172964 110.0571532  87.3579189  71.1289764  96.8343173  91.0991170
  71.6524166  97.0805470  91.8617479  70.9102098  97.6663208  90.6794307
  66.5257045  99.1046848  78.9662295  66.1969752  98.2244227  78.7837401
  66.8796416  99.0494516  79.8538684  75.7736624 110.7401750  83.4757280
  75.6261587 109.8118458  83.6564850  76.5990118 110.7621841  82.9914355
  69.6398869  99.3919817  79.3337772  69.9794941  99.9205739  78.6116381
  70.0870989  99.7300224  80.1096339  79.3770746 111.5630309  84.5622153
  80.3017294 111.3573170  84.4246604  79.2086050 111.3146710  85.4711494
  72.3342309  97.7756868  88.7840840  71.9939130  96.9764681  89.1861520
  71.6281316  98.0758579  88.2117674  72.9858781  94.8606181  87.2368163
  73.8084851  94.3866659  87.1147054  73.2296845  95.6396664  87.7366850
  71.6267016  97.8894439  77.5331065  72.3475378  98.2675692  77.0294782
  71.0032320  98.6083316  77.6366043  75.7698139  98.5939588  78.4689397
  75.9861753  99.4764226  78.1678226  75.2892206  98.2025801  77.7395039
  70.5097360 101.5525301  85.0460142  70.3641941 101.8665604  85.9384423
  70.0322564 102.1710202  84.4931041  72.3693743  98.5427849  85.0941032
  72.3555312  97.6468943  84.7573329  73.0866171  98.5498513  85.7279318
  74.2219874  98.9765189  87.1394159  73.9637651  99.8982260  87.1378489
  73.6904914  98.5795624  87.8294623  79.1666062 112.0815977  79.9184244
  79.3402940 111.5162399  79.1658097  79.6594954 112.8816871  79.7363734
  64.9843022 104.0930646  87.9847803  64.4396490 104.8690454  88.1168077
  65.8622372 104.4401450  87.8266925  71.7730639  97.4242229  80.3628602
  71.8946550  96.4958876  80.5619489  71.4832681  97.4380915  79.4506917
  74.6421829  95.1097140  83.4995322  74.6643526  95.1736473  82.5447301
  75.0589888  94.2701649  83.6935828  85.0205454 104.8452399  81.5374544
  85.4636600 104.0959725  81.1393667  84.1431964 104.8362536  81.1548276
  80.1541235 111.3982741  77.0181143  80.8492140 112.0189434  77.2368457
  80.4964385 110.5478092  77.2933521  65.7709044 103.2200542  90.8777960
  65.0290780 103.3683177  91.4642590  65.4501788 103.4808808  90.0144709
  82.0532658 108.8482446  78.5468473  82.5783982 109.1869719  77.8217793
  81.9655011 107.9129462  78.3631608  73.7373319 114.9154430  82.9063727
  73.2978309 114.4230808  83.5996583  74.4881436 114.3727397  82.6655802
  66.2165658 111.1065971  82.9088355  67.0423678 110.8069742  82.5286998
  65.8659710 110.3373593  83.3578143  71.1847191 110.4592439  84.9786028
  70.5627200 109.7963144  84.6788256  71.8552058 110.4853571  84.2959676
  64.4174263 109.0252297  83.8677288  63.5806171 108.5974471  83.6861290
  64.3897908 109.2184740  84.8048079  71.2571718  98.9374227  94.5718534
  71.3059874  99.8136350  94.1896304  71.7994233  98.3951620  93.9990177
  70.7460698 109.0096362  78.4544489  70.8948818 109.6931827  77.8011162
  71.5527141 108.9901452  78.9693945  79.1528202 102.3138745  92.4811707
  80.0538064 102.1745209  92.1895704  79.2276176 102.4793199  93.4209884
  73.4871007  99.6905599  91.3264893  72.6174316  99.9839165  91.0547481
  73.7230487 100.2746044  92.0472157  84.5638318 106.3157638  83.9296992
  85.3985210 106.7547442  84.0934552  84.6997447 105.8396291  83.1105237
  81.6129824 103.8737373  89.8774479  82.0883946 104.0665019  89.0693331
  80.6895390 103.9296558  89.6317863  68.5013331 105.0361540  79.4605558
  68.2559373 104.1323870  79.6585768  68.6709245 105.0378690  78.5185036
  76.1910041  95.9085216  88.8430313  76.7091985  96.6446243  88.5176802
  75.8365173  96.2149209  89.6777072  67.7708978 100.7689897  76.9591719
  67.0778223 100.8434252  76.3031755  67.5260730 100.0050241  77.4813236
  76.4422635  92.3285499  84.3631210  76.7224389  91.6608688  84.9891636
  77.2273242  92.5214594  83.8505874  74.2456103 111.5044493  75.9256236
  73.6730070 112.1234680  75.4726708  74.8188897 112.0543854  76.4596158
  80.3131493 100.7503133  88.1102785  81.2648916 100.8501230  88.1315009
  80.1434944  99.9581401  88.6200869  78.3345873  97.8358716  88.2962186
  77.7395805  98.1163729  87.6008675  78.0495569  98.3252617  89.0678927
  77.4653363 111.7881643  77.0564818  78.3984036 111.7227204  77.2597694
  77.3776576 112.6237910  76.5979351  80.0941380 111.1047513  74.0168766
  80.0155011 110.7707377  74.9104524  80.9151047 111.5969281  74.0160238
  82.7919571 103.9709252  87.2245085  82.7595891 103.0325253  87.4104768
  83.4020195 104.0493289  86.4910910  74.6302902 102.8405305  73.2672289
  75.5762007 102.7111513  73.3360707  74.2517147 102.1019967  73.7441717
  82.9414059 100.7620296  87.2703368  82.4253108  99.9778752  87.0833297
  83.8254008 100.4339012  87.4349887  80.6024786  94.5061311  83.2299181
  80.4049608  94.1976400  84.1142512  81.2124492  95.2322950  83.3597110
  88.6096121 105.0325259  86.3651121  89.3399509 104.7710547  86.9258825
  88.0003066 104.2953981  86.4053189  86.6911418 103.1733122  86.9625573
  85.9644582 103.0389087  86.3542064  86.2758705 103.4809950  87.7682291
  72.8145819 100.7655282  73.2027174  71.9077274 100.4688394  73.2789888
  73.0921800 100.4685100  72.3361460  63.7323759 102.0861645  83.6526220
  63.4126544 101.2326953  83.3600594  63.1857188 102.3010223  84.4084188
  67.5103667 104.8024086  87.3695727  67.7289677 105.7341194  87.3883761
  67.9229441 104.4432061  88.1550531  74.4307885  95.3092171  79.3571415
  73.6208613  94.9639256  79.7326661  75.1192302  94.9999715  79.9459027
  76.3598433  94.3870218  80.9795712  76.9129472  94.8065672  81.6385735
  76.5968519  93.4605966  81.0218668  72.3831532 100.3757292  96.7598476
  72.2828259 101.3251649  96.6910567  72.1653074 100.0475531  95.8874546
  71.5844604  97.6242217  73.3439153  72.4463768  97.9497115  73.6034970
  71.7694948  96.8373713  72.8312219  63.6012019 105.7064557  85.6219342
  62.9075491 105.2918509  85.1089296  64.3485010 105.7485093  85.0252761
  79.7377240  96.4970743  80.4874376  79.1575909  97.1555547  80.1052429
  79.4713173  95.6748088  80.0761794  78.1880806  95.8975801  82.6895696
  78.6880585  96.0092336  81.8810015  78.8316414  95.5936854  83.3296505
  72.2462802 103.8054431  95.5763537  71.7629884 104.6054791  95.7827426
  72.3323741 103.8162376  94.6230981  65.5148762 105.6382810  83.4985357
  65.4919450 105.7370498  82.5467240  65.8249398 106.4847961  83.8202523
  68.1736140 107.6958965  87.6131971  69.1279393 107.6642908  87.5461903
  67.9748663 107.2349589  88.4282197  68.7635522 106.2660082  90.1802769
  69.5828411 106.7604160  90.2037606  69.0372330 105.3492050  90.1520336
  78.5202118  98.6570834  79.5430724  77.6327973  98.9420484  79.3250919
  78.9356107  98.4964597  78.6958001  81.8716654  98.6817355  83.2585064
  82.6477044  99.1713807  83.5309680  81.1464788  99.1075409  83.7156933
  84.3089213  99.3944974  84.3159004  84.9033704  99.1540710  83.6052313
  84.3815797  98.6752105  84.9432541  66.5286369 113.2378585  84.6302169
  66.3940837 112.4778986  84.0640167  66.1118431 113.9619485  84.1630958
  77.6645332 108.4215508  73.6378744  78.3681182 108.6265511  74.2536400
  76.9407980 108.9892270  73.9027828  78.4943142 104.1725370  79.7581015
  78.4378343 104.6293921  78.9188647  79.0471484 103.4116054  79.5803857
  82.3047948  99.9615102  80.5831134  82.0484882  99.5611737  81.4139342
  81.6800816 100.6758896  80.4581273  86.6160286 102.7011175  83.0902425
  86.0559844 102.7704364  83.8633988  86.0103789 102.5252160  82.3701922
  69.6855494 114.1347902  84.8420612  69.5687879 115.0793334  84.7399302
  68.8647941 113.8321464  85.2306411  79.5732029 108.8598038  75.6877204
  80.4077633 108.4279236  75.5054679  79.4116372 108.6880051  76.6154099
  79.2277921 105.3630151  77.0533544  79.1726725 105.1974422  76.1121988
  78.6023976 106.0706184  77.2095733  64.0170436 100.5998215  90.8794966
  64.6629300 100.0897169  91.3682191  63.8087587 101.3366897  91.4538391
  72.5374047  94.8638260  76.6318862  72.5252716  95.8080100  76.7887133
  73.4297469  94.6808405  76.3378323  70.7110009 114.7876164  88.0576540
  71.6137255 114.8199774  88.3743035  70.4847379 113.8576615  88.0722876
  72.4663611 113.5407150  84.7186619  71.5159242 113.5409012  84.6050991
  72.7696097 112.7939885  84.2022653  76.3526166  91.4581037  80.8864799
  75.5858562  90.9039523  81.0321481  76.7636871  91.5302905  81.7478951
  68.3567927  97.7465832  94.9769980  69.2199389  97.3902637  95.1873305
  67.7833338  97.4079727  95.6645384  80.8692826 121.1830593  81.7090797
  80.3057691 121.0920530  80.9407085  80.7545221 120.3630498  82.1893289
  80.3748012 121.9390698  77.4192396  81.1478888 121.3919685  77.2805272
  80.7273411 122.8034948  77.6306857  82.7114290 118.0983364  75.0510846
  82.9639810 117.5764886  74.2894309  81.7738849 117.9349510  75.1537530
  82.4310579 120.0011470  77.2535221  82.3146837 119.3256374  77.9216305
  82.5412838 119.5143844  76.4367374  84.7742119 119.4621617  80.9581910
  84.4100327 118.9352238  81.6694832  85.6309235 119.0720086  80.7848396
  84.4147606 114.4911517  75.9543259  84.5822009 115.3591753  76.3213730
  84.2244775 114.6538799  75.0304548  84.3936827 116.9469175  76.9389926
  84.2736452 117.3926225  77.7775406  83.6989416 117.2954492  76.3803464
  83.1888324 118.2614027  79.2323491  83.8912367 118.7135070  79.6997418
  82.8568952 117.6197846  79.8603384  76.9313658 116.5197579  84.5340625
  76.1412712 116.7755108  84.0580735  77.4224905 117.3345917  84.6392665
  78.8828403 116.8842159  81.4924102  78.0859566 116.9960853  82.0107597
  78.6553995 117.2228811  80.6264992  77.8811486 122.5930407  79.8813522
  78.3936006 123.3873658  80.0319086  78.5334199 121.8956698  79.8147123
  75.8460402 120.9219062  80.6573092  76.6835624 121.3316070  80.4406800
  76.0238670 119.9818504  80.6273286  85.3271946 113.4343843  81.4042163
  84.4713542 113.0450693  81.2247802  85.7398897 113.5135804  80.5441949
  83.1013978 111.0528916  84.8099905  83.9666975 110.8571725  84.4505794
  83.1691487 110.8239268  85.7369262  87.5311138 116.4621234  78.1716706
  87.2261273 116.7767384  79.0226849  88.4841580 116.5402654  78.2144039
  80.7076297 113.2831124  82.1816272  81.2820049 113.0606305  81.4489465
  81.2947280 113.3519818  82.9344873  81.0345884 115.3135585  76.2012157
  80.1983197 115.6510272  76.5221432  80.8950654 115.1784565  75.2639294
  83.0098965 110.1572373  80.9091341  82.3563377 109.8421390  80.2847956
  82.9679439 109.5348113  81.6351164  84.1210170 120.4391668  72.8244633
  83.2137232 120.2080921  73.0235782  84.6181202 119.6429287  73.0118615
  87.0271753 118.0445722  80.3641669  87.7743572 118.5567119  80.0548791
  87.2963343 117.7229775  81.2246063  89.4750590 115.0802838  82.3460458
  88.7373347 114.5680225  82.6770701  89.7277364 114.6403220  81.5343735
  89.5762218 107.8579090  82.9402228  89.8821094 106.9976454  82.6528143
  90.3014822 108.4496711  82.7401222  75.8686574 118.2609777  81.3283826
  75.6710973 117.6679138  80.6034892  75.3133238 117.9561987  82.0459764
  81.7875657 116.7709943  81.2068798  80.9743523 117.0704114  81.6133990
  82.2834651 116.3765632  81.9243280  78.3632799 117.7873811  79.0124778
  77.4330387 117.7258266  79.2294740  78.4590271 117.2649764  78.2161419
  78.2818348 114.3128624  81.6003019  78.5425166 115.2273957  81.4912180
  79.1035521 113.8453066  81.7499632  80.9084265 115.1582812  73.4010064
  80.0313731 115.0371613  73.0372310  81.3842018 114.3668891  73.1488952
  72.4286405 119.9459972  83.4951571  73.1157445 119.6321702  82.9072586
  72.2734533 120.8501337  83.2218822  77.2321127 114.8350169  87.9236595
  77.1479316 114.2275838  87.1887005  76.4103833 115.3259187  87.9246091
  87.4044841 113.3203732  83.2906790  87.9013540 112.5673695  82.9707860
  86.6331822 113.3568049  82.7249999  83.9879809 115.4621115  83.0178474
  83.6177597 114.9092156  83.7059380  84.4838902 114.8579249  82.4653474
  72.0054381 118.0260566  85.7669038  72.0438480 117.4924156  86.5606156
  71.4994674 117.4995771  85.1480015  75.6362958 116.7524668  78.8422969
  75.9316399 115.8435346  78.7890023  74.7350994 116.7312407  78.5203972
  79.1657205 114.8280664  84.8250518  78.4443791 115.4416632  84.6857991
  79.9550461 115.3638429  84.7467164  77.3650800 114.4338765  78.9662295
  77.0363506 113.5536144  78.7837401  77.7190171 114.3786434  79.8538684
  80.4792623 114.7211735  79.3337772  80.8188696 115.2497656  78.6116381
  80.9264744 115.0592141  80.1096339  82.4660770 113.2186357  77.5331065
  83.1869133 113.5967609  77.0294782  81.8426074 113.9375234  77.6366043
  86.6091893 113.9231506  78.4689397  86.8255508 114.8056144  78.1678226
  86.1285960 113.5317719  77.7395039  83.2087497 113.8719767  85.0941032
  83.1949066 112.9760860  84.7573329  83.9259926 113.8790431  85.7279318
  82.6124393 112.7534147  80.3628602  82.7340305 111.8250793  80.5619489
  82.3226436 112.7672833  79.4506917  85.4815584 110.4389058  83.4995322
  85.5037281 110.5028391  82.5447301  85.8983643 109.5993566  83.6935828
  79.3407085 120.3653457  79.4605558  79.0953127 119.4615787  79.6585768
  79.5103000 120.3670608  78.5185036  78.6102733 116.0981815  76.9591719
  77.9171978 116.1726170  76.3031755  78.3654485 115.3342159  77.4813236
  87.2816389 107.6577416  84.3631210  87.5618143 106.9900605  84.9891636
  88.0666996 107.8506512  83.8505874  85.4696656 118.1697223  73.2672289
  86.4155761 118.0403431  73.3360707  85.0910901 117.4311885  73.7441717
  91.4418541 109.8353229  83.2299181  91.2443362 109.5268317  84.1142512
  92.0518246 110.5614868  83.3597110  83.6539574 116.0947199  73.2027174
  82.7471029 115.7980312  73.2789888  83.9315555 115.7977018  72.3361460
  74.5717514 117.4153563  83.6526220  74.2520298 116.5618871  83.3600594
  74.0250942 117.6302141  84.4084188  85.2701639 110.6384089  79.3571415
  84.4602368 110.2931174  79.7326661  85.9586056 110.3291633  79.9459027
  87.1992188 109.7162136  80.9795712  87.7523226 110.1357589  81.6385735
  87.4362274 108.7897884  81.0218668  82.4238358 112.9534135  73.3439153
  83.2857522 113.2789033  73.6034970  82.6088702 112.1665631  72.8312219
  74.4405774 121.0356474  85.6219342  73.7469245 120.6210427  85.1089296
  75.1878765 121.0777011  85.0252761  90.5770995 111.8262661  80.4874376
  89.9969664 112.4847465  80.1052429  90.3106927 111.0040006  80.0761794
  89.0274561 111.2267719  82.6895696  89.5274339 111.3384253  81.8810015
  89.6710169 110.9228772  83.3296505  76.3542516 120.9674728  83.4985357
  76.3313205 121.0662415  82.5467240  76.6643153 121.8139879  83.8202523
  89.3595873 113.9862752  79.5430724  88.4721728 114.2712402  79.3250919
  89.7749862 113.8256515  78.6958001  83.3767801 110.1930178  76.6318862
  83.3646471 111.1372018  76.7887133  84.2691223 110.0100323  76.3378323
  87.1919921 106.7872954  80.8864799  86.4252316 106.2331441  81.0321481
  87.6030626 106.8594823  81.7478951  23.1653778   4.4078305  72.5077688
  23.8032188   4.2885053  71.8041028  23.0474621   5.3559149  72.5665640
  19.9743485   4.3605733  72.4439213  19.6361996   4.2446798  71.5559747
  20.8433253   3.9596899  72.4240219  20.4563268   5.5140585  78.4025418
  20.4451908   5.1193383  77.5305922  20.6183907   4.7806658  78.9959190
  21.4129859   9.8812178  63.7450568  20.7617839  10.4666258  63.3584582
  22.2074222  10.4118372  63.8045606  15.3385486   6.9701315  64.1437703
  16.1116362   6.4230302  64.0050579  15.6910885   7.8345564  64.3552164
  17.1770529   8.2977697  77.3504602  16.8860395   9.2023328  77.2351268
  17.8127513   8.3394225  78.0648672  18.1026736   5.6754546  73.9405962
  18.6990308   5.4510568  73.2262925  18.1601707   4.9339291  74.5431410
  22.7195047   2.1329759  69.5830896  23.5058136   1.7149182  69.2321313
  22.9833751   3.0375851  69.7512544  22.8905124   7.5702610  64.2819553
  22.2550957   7.6437236  64.9940457  22.5602531   8.1596208  63.6038632
  28.1203474   2.0704992  70.4863874  28.8528646   1.5004209  70.7201704
  27.3642830   1.6826593  70.9270380  19.7379594   4.4932234  67.6827217
  19.3737801   3.9662855  68.3940138  20.5946710   4.1030703  67.5093702
  22.1360414   7.9839113  74.3454396  21.8361137   8.8864151  74.2370203
  21.7911473   7.7171296  75.1975549  25.5357558   0.5021653  72.0251833
  24.6274435   0.4337061  71.7310594  25.4845153   0.9793598  72.8533659
  17.1181194  14.7483433  67.3125363  17.0405223  15.6991258  67.3913844
  16.5142837  14.4029305  67.9700290  27.4019204  -1.2961909  73.8029707
  26.7593584  -1.0029376  73.1569502  26.8974133  -1.4108989  74.6082904
  25.0559368   2.4501264  64.4915566  25.9677224   2.6828651  64.3163264
  24.5469015   3.0338308  63.9290645  23.3400135   6.8725892  78.1276859
  23.7483491   6.4308303  77.3831491  22.6177397   6.2978520  78.3811052
  23.6628950   7.4327083  71.8829148  23.0337813   7.5972797  71.1805216
  23.2754612   7.8468692  72.6540112  27.5418182   8.3681521  69.2373511
  26.8569220   8.7480422  68.6870545  27.6262031   8.9776847  69.9705459
  24.7969114   6.0141480  75.8368855  25.0086009   6.6573239  75.1603236
  24.7498862   5.1803796  75.3690785  19.2156912   7.1701491  69.1479233
  19.6795257   7.4489194  68.3583855  18.9513710   6.2684935  68.9652323
  16.1080993   6.7172972  72.0858996  16.6782350   7.1460241  71.4476481
  16.6989105   6.4355557  72.7843182  25.9114942   8.8913435  74.0091212
  26.7332385   8.4893622  73.7273894  25.9077344   8.7881669  74.9607328
  19.6771545   8.4397478  76.1651923  19.7415977   8.9017886  77.0010095
  18.9682469   7.8094843  76.2934233  34.0020935   5.2352184  70.3576184
  33.2484643   4.6659582  70.2020188  34.1368476   5.2014848  71.3046818
  19.3919563  10.1065586  66.0330903  19.2565237  10.9517122  66.4615751
  19.9329375  10.3084863  65.2696837  14.6543845  10.7406780  68.6881581
  14.8310473  11.6624745  68.5002565  15.4500678  10.4265199  69.1175961
  21.0188039  10.7289152  80.1631245  20.5751893   9.9425531  79.8452150
  21.6805253  10.9168303  79.4975136  15.7775160  12.2584954  74.6891924
  16.3282585  12.1302017  73.9168918  14.9386636  12.5579843  74.3386817
  23.1169277  11.0091952  78.1912646  23.0987752  11.8300833  77.6992916
  24.0389197  10.8846027  78.4162788  19.5742331   8.5236082  79.0336155
  20.1070668   7.7624370  78.8035463  19.0456412   8.2309734  79.7760309
  22.7062309   3.6204759  63.0702232  22.1908932   4.3909363  63.3090619
  22.4339617   2.9469895  63.6935293  27.6796583   6.3737113  65.0055405
  26.9026026   6.0348273  64.5610567  28.3588064   6.3789737  64.3310370
  20.9395044   7.6522074  66.5454967  20.4116406   6.9174834  66.2328204
  20.4382547   8.4296751  66.2994935  25.9187890   5.8471095  71.6622013
  25.2611564   6.5370356  71.7502142  26.7228289   6.2367527  72.0056000
  24.7293349   4.2015467  69.7125955  25.2425230   4.8345459  70.2147665
  25.3794573   3.6016663  69.3469315  19.0847644   5.4702284  59.5489940
  18.1774706   5.2391538  59.7481089  19.5818676   4.6739904  59.7363921
  21.9915723  14.1799792  62.4686626  21.3177422  14.4831488  63.0771584
  22.3781545  14.9828872  62.1192083  21.9909227   3.0756339  67.0886976
  22.7381046   3.5877736  66.7794098  22.2600817   2.7540391  67.9491369
  20.2635878   5.5714879  64.0713930  19.3547097   5.2873912  64.1686400
  20.2930961   5.9913958  63.2117237  25.4955145   9.1821469  67.8405098
  25.0417472   8.3412379  67.8970288  24.8649112   9.8182867  68.1779878
  23.9388084  11.0197966  68.7754916  24.2311059  11.5803023  68.0567281
  24.4486705  11.3126527  69.5308075  19.9611965   7.1123623  61.4102009
  19.5231395   6.3959482  60.9507646  20.7022406   7.3399738  60.8487100
  18.9021709  11.7978317  69.8648369  18.8597888  12.0239163  68.9356901
  19.8184408  11.5641691  70.0134170  22.3487343   2.2662384  76.7628998
  22.7036731   2.4933857  77.6223464  22.9959474   2.5980761  76.1406253
  28.0785080   5.3880820  67.4678327  27.9402979   5.5782416  66.5399516
  27.7221299   6.1500203  67.9246378  28.1054460   7.4557347  72.4789599
  28.5390966   7.3632636  73.3272653  28.8186040   7.4314848  71.8409615
  17.0187510   8.6741346  69.6610332  17.8128109   8.1791666  69.4592907
  16.3079203   8.1459209  69.2978037  21.8382355  11.0559441  74.0122699
  21.8919377  11.6250377  74.7800415  20.9697136  11.2261326  73.6476736
  28.9670009   7.4981048  75.0122484  29.1605899   8.4026858  75.2581759
  28.8670627   7.0388467  75.8461069  24.0285118   7.6487790  80.5863365
  23.8770624   7.4198342  79.6693448  24.0189797   8.6058392  80.5994710
  20.7970454   5.2219703  75.5709631  21.7262514   5.3730863  75.3978598
  20.3761484   5.3103724  74.7158278  19.5958786   9.2470368  73.3408169
  19.4569872   8.8789152  74.2134107  18.8073382   9.7618007  73.1692127
  20.1906938  14.3479464  64.6833705  20.3658694  13.8767507  65.4979328
  19.5039726  14.9745230  64.9114966  21.1464001   8.6251970  70.7297007
  20.8113834   8.5852740  71.6254656  20.6467947   7.9596686  70.2567417
  24.0823193   5.9708005  61.0034066  23.4652364   5.2454833  60.9067119
  23.6139681   6.7317365  60.6601140  25.7377325  10.6806913  78.6639847
  25.6789871   9.9966133  77.9970430  26.1396843  11.4225903  78.2120473
  14.7568023  17.4968827  71.4573565  14.9964622  18.1287351  72.1352584
  13.9137220  17.1456867  71.7438925  25.7394732   8.6446497  76.8953826
  24.8521511   8.3072419  77.0180225  26.3093283   7.9129528  77.1322592
  19.2695885  13.3047949  73.8615069  19.1966057  14.1102921  74.3734374
  18.8273278  13.5039915  73.0363091  19.0585665  12.5419719  67.3717891
  18.2753187  13.0841400  67.4656115  19.7578410  13.0593699  67.7712132
  30.2212072   4.0554714  71.6570388  30.2101949   4.9379430  71.2864321
  29.3529452   3.7026265  71.4624925  21.7294569  13.2034783  76.0173228
  22.4422541  13.8382248  75.9449130  21.2384597  13.2998649  75.2013230
  23.4512096   7.1086036  67.5890520  22.5168374   7.2287498  67.4195224
  23.6288764   6.2058503  67.3250530  26.8384647   2.9503355  68.1240554
  27.3045099   3.7831347  68.0500857  27.2892148   2.4848337  68.8285812
  16.7806482  10.9529227  76.8378799  17.4815942  11.5865710  76.9908193
  16.3101597  11.2943958  76.0774438  24.9060878   9.2947177  65.1226706
  25.1820722   9.1803771  66.0320580  24.0365377   8.8964661  65.0838879
  24.5807768   3.5073834  74.6631349  23.9279219   3.7549742  74.0083802
  24.9588148   2.6937972  74.3293827  21.5414942  13.5433527  68.7659520
  21.7237337  12.7255183  69.2287272  22.3647928  13.7601220  68.3284410
  21.8757108  12.4701713  66.0274568  22.4044874  11.9594167  65.4144730
  22.1385327  12.1544243  66.8920101  20.6295341   4.2493645  81.1497386
  19.9535978   4.1487775  81.8199762  21.4522975   4.0932859  81.6133384
  12.3774200  10.4865582  73.7709902  12.9627637   9.7409270  73.9037806
  12.1799039  10.7969539  74.6546565  15.2312856  13.5216829  68.7872344
  14.5623231  14.0062957  68.3036384  15.0925725  13.7686050  69.7015722
  19.3718124  15.5560573  75.3855002  19.9236432  15.7192194  76.1504088
  19.7124318  16.1465011  74.7135027  24.2228999  10.3821830  81.2403657
  24.7668903  10.9951789  80.7458612  23.6415843  10.9401409  81.7570670
  22.5086511  13.5042548  72.3718684  22.3837651  12.7032288  71.8629630
  23.1665603  13.9988742  71.8832654  24.5721420  11.3051568  73.9998235
  23.6251755  11.1856920  73.9276561  24.9204193  10.4174066  74.0824496
  21.5767853  11.1004285  70.2002587  21.4292816  10.1720992  70.3810157
  22.4021347  11.1224375  69.7159662  25.1801975  11.9232843  71.2867460
  26.1048522  11.7175705  71.1491911  25.0117278  11.6749244  72.1956801
  24.9697291  12.4418511  66.6429551  25.1434169  11.8764933  65.8903403
  25.4626182  13.2419406  66.4609041  30.8236682   5.2054934  68.2619851
  31.2667828   4.4562259  67.8638974  29.9463193   5.1965070  67.8793583
  25.9572464  11.7585275  63.7426449  26.6523368  12.3791968  63.9613764
  26.2995614  10.9080626  64.0178827  27.8563887   9.2084981  65.2713780
  28.3815211   9.5472253  64.5463100  27.7686239   8.2731996  65.0876915
  19.5183936  13.1219054  77.4003657  19.8271062  12.8768201  78.2726356
  20.3159418  13.3265693  76.9122527  19.5404548  15.2756964  69.6309033
  19.1009538  14.7833343  70.3241890  20.2912665  14.7329932  69.3901108
  12.0196887  11.4668505  69.6333661  12.8454906  11.1672277  69.2532305
  11.6690939  10.6976127  70.0823450  16.9878420  10.8194973  71.7031335
  16.3658429  10.1565678  71.4033563  17.6583287  10.8456105  71.0204983
  27.5457793   9.8417884  80.5764978  26.7553337   9.8242023  80.0369477
  27.3091147  10.3806178  81.3314015  27.6655668   6.6910351  77.8897707
  27.7153673   6.5260358  78.8313229  27.5569591   5.8237610  77.4995587
  16.5491927   9.3698896  65.1789795  16.6980047  10.0534361  64.5256468
  17.3558370   9.3503986  65.6939251  24.9559430   2.6741279  79.2057013
  25.8569293   2.5347744  78.9141011  25.0307405   2.8395734  80.1455191
  29.1673865   9.1107292  78.1339728  28.8758673   9.4737273  78.9703189
  28.5545996   8.3974301  77.9553060  30.3669547   6.6760172  70.6542298
  31.2016438   7.1149976  70.8179859  30.5028676   6.1998825  69.8350544
  27.4161053   4.2339907  76.6019786  27.8915175   4.4267553  75.7938637
  26.4926618   4.2899093  76.3563170  20.0487332  11.8647027  62.6501543
  19.4761299  12.4837214  62.1972015  20.6220126  12.4146389  63.1841465
  26.1162722   1.1105667  74.8348092  27.0680145   1.2103765  74.8560316
  25.9466172   0.3183935  75.3446176  23.2684592  12.1484177  63.7810125
  24.2015265  12.0829739  63.9843001  23.1807805  12.9840444  63.3224658
  25.8972609  11.4650047  60.7414073  25.8186240  11.1309911  61.6349831
  26.7182275  11.9571815  60.7405545  28.5950800   4.3311787  73.9490391
  28.5627120   3.3927787  74.1350075  29.2051423   4.4095823  73.2156216
  28.7445288   1.1222830  73.9948675  28.2284337   0.3381287  73.8078603
  29.6285237   0.7941547  74.1595194  34.4127350   5.3927793  73.0896428
  35.1430738   5.1313082  73.6504131  33.8034295   4.6556515  73.1298496
  32.4942647   3.5335656  73.6870879  31.7675810   3.3991621  73.0787371
  32.0789934   3.8412485  74.4927597  20.3172823   7.2525586  81.4518252
  21.2375833   7.4304185  81.6458299  20.2822406   6.3081631  81.2997952
  27.6747883  -0.9580111  69.9830370  28.4508273  -0.4683659  70.2554987
  26.9496017  -0.5322057  70.4402240  30.1120442  -0.2452492  71.0404311
  30.7064933  -0.4856756  70.3297619  30.1847025  -0.9645361  71.6677847
  12.3317597  13.5981119  71.3547476  12.1972065  12.8381520  70.7885474
  11.9149660  14.3222019  70.8876265  23.4676560   8.7818043  60.3624051
  24.1712411   8.9868045  60.9781707  22.7439209   9.3494805  60.6273135
  24.2974371   4.5327904  66.4826321  24.2409572   4.9896455  65.6433954
  24.8502713   3.7718589  66.3049164  28.1079177   0.3217636  67.3076441
  27.8516111  -0.0785728  68.1384648  27.4832045   1.0361430  67.1826580
  32.4191514   3.0613709  69.8147732  31.8591072   3.1306898  70.5879294
  31.8135018   2.8854694  69.0947228  15.4886723  14.4950436  71.5665918
  15.3719107  15.4395869  71.4644609  14.6679170  14.1923998  71.9551718
  25.3763258   9.2200572  62.4122511  26.2108862   8.7881770  62.2299986
  25.2147601   9.0482586  63.3399406  25.0309150   5.7232685  63.7778850
  24.9757954   5.5576957  62.8367294  24.4055205   6.4308718  63.9341040
  22.3455057   8.0281597  83.1032413  23.2146217   8.2022249  82.7419048
  21.8661809   8.8476014  82.9808143  16.5141237  15.1478698  74.7821847
  17.4168484  15.1802308  75.0988342  16.2878607  14.2179149  74.7968183
  18.2694839  13.9009685  71.4431925  17.3190470  13.9011546  71.3296298
  18.5727326  13.1542419  70.9267960  34.0047533  19.7370223  72.5077688
  34.6425943  19.6176970  71.8041028  33.8868376  20.6851067  72.5665640
  30.8137239  19.6897651  72.4439213  30.4755751  19.5738716  71.5559747
  31.6827007  19.2888816  72.4240219  26.6724055  21.5433128  68.4336103
  26.1088920  21.4523064  67.6652391  26.5576450  20.7233032  68.9138596
  31.2957022  20.8432503  78.4025418  31.2845663  20.4485301  77.5305922
  31.4577662  20.1098575  78.9959190  24.2188487  23.0384319  71.2720324
  25.0109779  22.6975144  70.8566623  24.4585137  23.1479294  72.1922477
  32.2523614  25.2104095  63.7450568  31.6011593  25.7958176  63.3584582
  33.0467976  25.7410290  63.8045606  26.1779241  22.2993232  64.1437703
  26.9510117  21.7522219  64.0050579  26.5304640  23.1637482  64.3552164
  28.0164283  23.6269615  77.3504602  27.7254149  24.5315246  77.2351268
  28.6521268  23.6686142  78.0648672  28.9420490  21.0046463  73.9405962
  29.5384062  20.7802486  73.2262925  28.9995462  20.2631209  74.5431410
  28.5145519  18.4585899  61.7756153  28.7671039  17.9367420  61.0139616
  27.5770078  18.2952044  61.8782836  33.5588801  17.4621677  69.5830896
  34.3451891  17.0441100  69.2321313  33.8227506  18.3667769  69.7512544
  33.7298879  22.8994527  64.2819553  33.0944712  22.9729154  64.9940457
  33.3996285  23.4888126  63.6038632  38.9597229  17.3996910  70.4863874
  39.6922400  16.8296127  70.7201704  38.2036584  17.0118511  70.9270380
  28.2341807  20.3614004  63.9780528  28.1178065  19.6858908  64.6461612
  28.3444067  19.8746378  63.1612681  30.5773348  19.8224152  67.6827217
  30.2131555  19.2954773  68.3940138  31.4340464  19.4322621  67.5093702
  36.4822649  11.1118484  74.9458483  36.1505974  11.9813895  74.7219698
  35.8868262  10.7954768  75.6252513  30.2178835  14.8514051  62.6788565
  30.3853238  15.7194288  63.0459036  30.0276004  15.0141333  61.7549855
  32.9754168  23.3131030  74.3454396  32.6754891  24.2156069  74.2370203
  32.6305228  23.0463213  75.1975549  26.4266650  19.7644827  70.3791100
  25.5017146  19.6321041  70.5868792  26.6751063  20.5439046  70.8761043
  36.3751312  15.8313570  72.0251833  35.4668190  15.7628979  71.7310594
  36.3238908  16.3085515  72.8533659  30.1968056  17.3071709  63.6635232
  30.0767681  17.7528760  64.5020712  29.5020644  17.6557026  63.1048770
  23.7875461  19.4078101  71.2134889  23.9167842  19.6612579  72.1274301
  23.1072912  20.0005809  70.8939544  27.9574948  30.0775351  67.3125363
  27.8798978  31.0283176  67.3913844  27.3536592  29.7321223  67.9700290
  30.4492178  17.2503216  79.9686730  29.6725512  17.8097136  79.9589595
  31.0882741  17.7359999  80.4901600  38.2412959  14.0330009  73.8029707
  37.5987339  14.3262542  73.1569502  37.7367887  13.9182929  74.6082904
  35.8953122  17.7793182  64.4915566  36.8070978  18.0120569  64.3163264
  35.3862769  18.3630226  63.9290645  28.7038550  20.0588669  79.5304697
  29.4453235  20.5973713  79.2539521  27.9975536  20.6854958  79.6876249
  34.1793890  22.2017810  78.1276859  34.5877246  21.7600220  77.3831491
  33.4571151  21.6270437  78.3811052  30.5324960  17.1390417  75.5010416
  31.3786155  17.5629830  75.6445065  30.4723598  16.4824041  76.1948979
  34.5022705  22.7619000  71.8829148  33.8731567  22.9264715  71.1805216
  34.1148367  23.1760610  72.6540112  38.3811936  23.6973438  69.2373511
  37.6962975  24.0772340  68.6870545  38.4655786  24.3068765  69.9705459
  33.6824405  14.7994785  77.1591589  33.4385337  15.5536845  76.6225865
  33.9584336  15.1780133  77.9938836  35.6362868  21.3433397  75.8368855
  35.8479763  21.9865157  75.1603236  35.5892616  20.5095714  75.3690785
  33.2389097  13.9551218  72.7405427  32.3773576  14.2532471  73.0322165
  33.2651532  14.1721617  71.8086460  30.0550666  22.4993408  69.1479233
  30.5189012  22.7781111  68.3583855  29.7907465  21.5976853  68.9652323
  26.9474748  22.0464890  72.0858996  27.5176105  22.4752158  71.4476481
  27.5382859  21.7647475  72.7843182  28.9919552  18.6216561  65.9568798
  29.6943596  19.0737605  66.4242724  28.6600181  17.9800380  66.5848691
  27.4399914  17.2128317  80.3320007  26.8098575  17.8944598  80.5655404
  27.3336002  17.1011399  79.3873146  22.7344886  16.8800114  71.2585931
  21.9443940  17.1357642  70.7826042  23.2256134  17.6948451  71.3637972
  36.7508696  24.2205353  74.0091212  37.5726140  23.8185540  73.7273894
  36.7471099  24.1173587  74.9607328  24.6859632  17.2444693  68.2169408
  23.8890795  17.3563387  68.7352904  24.4585224  17.5831345  67.3510299
  30.5165299  23.7689396  76.1651923  30.5809732  24.2309803  77.0010095
  29.8076223  23.1386761  76.2934233  21.0182589  17.1330604  73.6900922
  21.2690628  18.0177614  73.9558498  21.5542138  16.9535206  72.9176014
  44.8414689  20.5644101  70.3576184  44.0878397  19.9951499  70.2020188
  44.9762230  20.5306766  71.3046818  30.2313317  25.4357503  66.0330903
  30.0958992  26.2809039  66.4615751  30.7723130  25.6376781  65.2696837
  26.7180657  11.5149083  82.6945258  26.3247602  10.9615282  83.3692903
  27.5346797  11.8259662  83.0851776  23.6842715  22.9532942  66.6058828
  24.1967235  23.7476192  66.7564393  24.3365427  22.2559232  66.5392430
  25.4937599  26.0698698  68.6881581  25.6704228  26.9916662  68.5002565
  26.2894433  25.7557117  69.1175961  29.6348618  12.9306962  80.2865515
  30.3758331  13.5314116  80.2069977  29.8666541  12.1884600  79.7283557
  24.7789956  18.1163330  78.5643745  24.6643471  17.2148587  78.8650844
  23.9234473  18.3627026  78.2128561  31.8581793  26.0581070  80.1631245
  31.4145648  25.2717449  79.8452150  32.5199007  26.2460220  79.4975136
  26.6168915  27.5876872  74.6891924  27.1676340  27.4593935  73.9168918
  25.7780391  27.8871761  74.3386817  33.9563032  26.3383870  78.1912646
  33.9381507  27.1592751  77.6992916  34.8782952  26.2137945  78.4162788
  30.4136086  23.8527999  79.0336155  30.9464423  23.0916288  78.8035463
  29.8850167  23.5601651  79.7760309  33.5805781   8.9588065  74.5629797
  33.2370050   9.8489707  74.4868907  33.9484743   8.7689723  73.6999382
  21.6491631  21.2821596  67.3818399  22.4866853  21.6918604  67.1652106
  21.8269899  20.3421038  67.3518593  33.5456063  18.9496676  63.0702232
  33.0302687  19.7201281  63.3090619  33.2733372  18.2761813  63.6935293
  31.1303174  13.7946377  68.1287470  30.2744771  13.4053228  67.9493109
  31.5430126  13.8738338  67.2687256  32.6602321  11.3292721  72.5279030
  32.1567117  11.2922856  71.7146835  32.9532928  12.2385463  72.5875687
  28.9045207  11.4131450  71.5345212  29.7698204  11.2174259  71.1751101
  28.9722716  11.1841802  72.4614568  38.5190338  21.7029031  65.0055405
  37.7419780  21.3640191  64.5610567  39.1981819  21.7081654  64.3310370
  33.3342367  16.8223769  64.8962013  33.0292502  17.1369918  65.7472156
  34.2872809  16.9005188  64.9389346  31.7788798  22.9813992  66.5454967
  31.2510160  22.2466751  66.2328204  31.2776301  23.7588668  66.2994935
  36.7581644  21.1763012  71.6622013  36.1005319  21.8662274  71.7502142
  37.5622044  21.5659444  72.0056000  26.5107526  13.6433658  68.9061578
  27.0851278  13.4208840  68.1734771  27.0978508  13.7122353  69.6590180
  35.5687103  19.5307385  69.7125955  36.0818985  20.1637377  70.2147665
  36.2188327  18.9308581  69.3469315  26.8377113  15.6738119  62.9257464
  26.0014425  16.0112806  63.2466738  26.6981883  15.5387099  61.9884601
  28.8130194  10.5174907  67.6336648  28.1594606  10.2023924  67.0093263
  28.7710668   9.8950648  68.3596471  29.9241399  20.7994202  59.5489940
  29.0168460  20.5683456  59.7481089  30.4212431  20.0031821  59.7363921
  32.8309477  29.5091709  62.4686626  32.1571176  29.8123406  63.0771584
  33.2175299  30.3120790  62.1192083  32.0467934  17.0056841  71.9584295
  31.1290495  17.2271788  71.8005984  32.4628078  17.0803151  71.0996003
  32.8302982  18.4048256  67.0886976  33.5774801  18.9169654  66.7794098
  33.0994571  18.0832309  67.9491369  31.1029632  20.9006797  64.0713930
  30.1940851  20.6165830  64.1686400  31.1324716  21.3205876  63.2117237
  36.3348899  24.5113387  67.8405098  35.8811227  23.6704296  67.8970288
  35.7042866  25.1474785  68.1779878  35.2781819  15.4405373  69.0705765
  34.5404576  14.9282759  69.4016008  35.5308593  15.0005754  68.2589042
  34.7781839  26.3489883  68.7754916  35.0704813  26.9094940  68.0567281
  35.2880459  26.6418444  69.5308075  35.3793446   8.2181625  69.6647534
  35.6852323   7.3578988  69.3773449  36.1046051   8.8099245  69.4646528
  21.6717802  18.6212311  68.0529132  21.4742202  18.0281672  67.3280199
  21.1164466  18.3164521  68.7705071  29.6514526  18.5135418  70.1723725
  29.7063136  17.5609254  70.0966202  28.8405728  18.6694857  70.6565024
  30.8005720  22.4415541  61.4102009  30.3625150  21.7251400  60.9507646
  31.5416161  22.6691656  60.8487100  27.5906886  17.1312477  67.9314104
  26.7774752  17.4306648  68.3379296  28.0865880  16.7368166  68.6488586
  29.7415464  27.1270234  69.8648369  29.6991643  27.3531081  68.9356901
  30.6578163  26.8933609  70.0134170  33.1881098  17.5954302  76.7628998
  33.5430485  17.8225775  77.6223464  33.8353229  17.9272679  76.1406253
  38.9178835  20.7172738  67.4678327  38.7796733  20.9074334  66.5399516
  38.5615053  21.4792121  67.9246378  27.0820961  14.7030833  73.5475339
  27.7220340  14.5619592  72.8498302  26.2498491  14.4165346  73.1713941
  38.9448214  22.7849265  72.4789599  39.3784721  22.6924554  73.3272653
  39.6579795  22.7606765  71.8409615  27.8581265  24.0033263  69.6610332
  28.6521863  23.5083583  69.4592907  27.1472957  23.4751126  69.2978037
  32.6776109  26.3851359  74.0122699  32.7313131  26.9542295  74.7800415
  31.8090891  26.5553244  73.6476736  24.1664028  18.1476345  65.7370084
  23.2361616  18.0860801  65.9540046  24.2621500  17.6252298  64.9406726
  24.0849577  14.6731158  68.3248326  24.3456394  15.5876491  68.2157486
  24.9066750  14.2055600  68.4744939  25.5574503  16.0868915  75.4947150
  26.2297556  15.8786277  74.8459799  24.7304289  15.8891001  75.0552383
  39.8063764  22.8272965  75.0122484  39.9999654  23.7318776  75.2581759
  39.7064382  22.3680384  75.8461069  31.4600075  12.7130856  77.5112811
  30.8127990  13.4120806  77.4177288  32.2301090  13.1467000  77.8789060
  34.8678872  22.9779708  80.5863365  34.7164379  22.7490260  79.6693448
  34.8583552  23.9350310  80.5994710  31.6364209  20.5511621  75.5709631
  32.5656269  20.7022780  75.3978598  31.2155239  20.6395642  74.7158278
  30.4352541  24.5762285  73.3408169  30.2963626  24.2081070  74.2134107
  29.6467137  25.0909925  73.1692127  31.0300693  29.6771382  64.6833705
  31.2052448  29.2059425  65.4979328  30.3433481  30.3037148  64.9114966
  31.9857756  23.9543888  70.7297007  31.6507588  23.9144658  71.6254656
  31.4861701  23.2888604  70.2567417  25.9602000  19.3611518  76.2549588
  25.8221798  18.6291757  76.8561127  26.8706923  19.2720418  75.9733775
  34.9216947  21.2999922  61.0034066  34.3046118  20.5746750  60.9067119
  34.4533436  22.0609283  60.6601140  28.5884300  19.0731477  75.7433267
  29.2983919  18.4324670  75.7019886  28.5453609  19.3244372  76.6659448
  36.5771079  26.0098831  78.6639847  36.5183625  25.3258051  77.9970430
  36.9790597  26.7517821  78.2120473  27.3013234  16.0596695  77.5628907
  26.7650591  15.6087434  78.2150503  26.7129943  16.1942604  76.8199371
  25.5961778  32.8260745  71.4573565  25.8358376  33.4579269  72.1352584
  24.7530974  32.4748785  71.7438925  26.7115493  15.5185347  60.1255370
  25.8344960  15.3974147  59.7617617  27.1873246  14.7271425  59.8734259
  36.5788486  23.9738415  76.8953826  35.6915265  23.6364336  77.0180225
  37.1487037  23.2421446  77.1322592  18.2317633  20.3062506  70.2196878
  18.9188673  19.9924236  69.6317893  18.0765762  21.2103871  69.9464129
  23.0352356  15.1952703  74.6481901  22.9510544  14.5878372  73.9132311
  22.2135062  15.6861721  74.6491398  30.1089640  28.6339867  73.8615069
  30.0359811  29.4394838  74.3734374  29.6667033  28.8331833  73.0363091
  29.8979419  27.8711637  67.3717891  29.1146941  28.4133317  67.4656115
  30.5972165  28.3885617  67.7712132  33.2076070  13.6806266  70.0152096
  33.7044769  12.9276229  69.6953167  32.4363051  13.7170583  69.4495306
  41.0605827  19.3846632  71.6570388  41.0495703  20.2671347  71.2864321
  40.1923206  19.0318183  71.4624925  32.5688323  28.5326701  76.0173228
  33.2816296  29.1674166  75.9449130  32.0778352  28.6290567  75.2013230
  34.2905850  22.4377954  67.5890520  33.3562129  22.5579416  67.4195224
  34.4682519  21.5350420  67.3250530  29.7911038  15.8223649  69.7423781
  29.4208826  15.2694690  70.4304687  30.2870131  15.2181783  69.1898781
  37.6778402  18.2795273  68.1240554  38.1438854  19.1123265  68.0500857
  38.1285902  17.8140255  68.8285812  27.6200237  26.2821144  76.8378799
  28.3209696  26.9157627  76.9908193  27.1495352  26.6235876  76.0774438
  35.7454633  24.6239094  65.1226706  36.0214477  24.5095689  66.0320580
  34.8759131  24.2256579  65.0838879  35.6495064  10.6475860  72.1631455
  34.7358144  10.8780087  72.3313662  36.0788166  10.7314304  73.0145488
  35.4201523  18.8365752  74.6631349  34.7672973  19.0841659  74.0083802
  35.7981903  18.0229890  74.3293827  32.3808697  28.8725445  68.7659520
  32.5631091  28.0547101  69.2287272  33.2041683  29.0893137  68.3284410
  32.7150862  27.7993630  66.0274568  33.2438629  27.2886085  65.4144730
  32.9779082  27.4836160  66.8920101  31.4689096  19.5785563  81.1497386
  30.7929733  19.4779692  81.8199762  32.2916730  19.4224777  81.6133384
  23.2167955  25.8157500  73.7709902  23.8021392  25.0701187  73.9037806
  23.0192793  26.1261456  74.6546565  26.0706610  28.8508747  68.7872344
  25.4016985  29.3354875  68.3036384  25.9319480  29.0977967  69.7015722
  17.8085610  18.3863100  72.4914345  17.8469709  17.8526690  73.2851463
  17.3025902  17.8598305  71.8725322  30.2111879  30.8852490  75.3855002
  30.7630187  31.0484112  76.1504088  30.5518072  31.4756928  74.7135027
  25.1876372  13.2327640  75.9876887  25.2517698  14.0942471  75.5754285
  25.1243492  12.6201642  75.2549246  24.6628644  15.3050773  79.6349921
  25.2900683  14.9227850  80.2487446  23.8056563  15.0864975  80.0005614
  35.0622753  25.7113748  81.2403657  35.6062657  26.3243706  80.7458612
  34.4809598  26.2693326  81.7570670  21.4394187  17.1127202  65.5668276
  21.7347628  16.2037880  65.5135330  20.5382223  17.0914941  65.2449278
  33.3480266  28.8334466  72.3718684  33.2231405  28.0324206  71.8629630
  34.0059357  29.3280659  71.8832654  24.9688434  15.1883198  71.5495825
  24.2475020  15.8019166  71.4103298  25.7581690  15.7240963  71.4712471
  35.4115174  26.6343486  73.9998235  34.4645510  26.5148837  73.9276561
  35.7597947  25.7465984  74.0824496  27.7714748  12.5237625  77.8236476
  28.2949150  12.7699921  78.5862786  27.5527081  13.3557660  77.4039614
  23.1682029  14.7941300  65.6907601  22.8394735  13.9138678  65.5082707
  23.5221399  14.7388968  66.5783990  32.4161608  26.4296202  70.2002587
  32.2686570  25.5012910  70.3810157  33.2415101  26.4516293  69.7159662
  26.2823852  15.0814269  66.0583079  26.6219924  15.6100191  65.3361687
  26.7295972  15.4194675  66.8341645  36.0195729  27.2524761  71.2867460
  36.9442277  27.0467622  71.1491911  35.8511033  27.0041162  72.1956801
  28.9767293  13.4651320  75.5086147  28.6364113  12.6659133  75.9106827
  28.2706299  13.7653031  74.9362980  29.6283765  10.5500632  73.9613470
  30.4509834  10.0761111  73.8392360  29.8721828  11.3291116  74.4612156
  28.2691999  13.5788891  64.2576372  28.9900362  13.9570144  63.7540089
  27.6457303  14.2977768  64.3611350  32.4123122  14.2834040  65.1934704
  32.6286736  15.1658678  64.8923532  31.9317189  13.8920253  64.4640346
  27.1522343  17.2419753  71.7705449  27.0066924  17.5560056  72.6629730
  26.6747547  17.8604653  71.2176347  29.0118726  14.2322301  71.8186338
  28.9980295  13.3363394  71.4818636  29.7291154  14.2392965  72.4524624
  30.8644857  14.6659641  73.8639466  30.6062635  15.5876712  73.8623796
  30.3329897  14.2690076  74.5539930  35.8091046  27.7710428  66.6429551
  35.9827923  27.2056851  65.8903403  36.3019937  28.5711323  66.4609041
  21.6268006  19.7825098  74.7093110  21.0821474  20.5584905  74.8413384
  22.5047355  20.1295902  74.5512231  28.4155622  13.1136681  67.0873908
  28.5371533  12.1853328  67.2864796  28.1257665  13.1275367  66.1752224
  31.2846813  10.7991592  70.2240628  31.3068509  10.8630925  69.2692608
  31.7014872   9.9596100  70.4181134  41.6630437  20.5346851  68.2619851
  42.1061583  19.7854177  67.8638974  40.7856947  20.5256988  67.8793583
  36.7966218  27.0877193  63.7426449  37.4917123  27.7083886  63.9613764
  37.1389368  26.2372544  64.0178827  22.4134027  18.9094994  77.6023267
  21.6715763  19.0577629  78.1887897  22.0926772  19.1703259  76.7390016
  38.6957641  24.5376898  65.2713780  39.2208965  24.8764171  64.5463100
  38.6079994  23.6023914  65.0876915  30.3577690  28.4510972  77.4003657
  30.6664816  28.2060119  78.2726356  31.1553172  28.6557610  76.9122527
  30.3798302  30.6048882  69.6309033  29.9403292  30.1125260  70.3241890
  31.1306419  30.0621849  69.3901108  22.8590641  26.7960422  69.6333661
  23.6848661  26.4964194  69.2532305  22.5084693  26.0268045  70.0823450
  27.8272174  26.1486891  71.7031335  27.2052184  25.4857596  71.4033563
  28.4977041  26.1748023  71.0204983  21.0599246  24.7146749  70.5922595
  20.2231154  24.2868923  70.4106596  21.0322892  24.9079192  71.5293386
  27.8996702  14.6268679  81.2963841  27.9484857  15.5030802  80.9141611
  28.4419216  14.0846072  80.7235484  38.3851547  25.1709802  80.5764978
  37.5947091  25.1533941  80.0369477  38.1484902  25.7098096  81.3314015
  38.5049422  22.0202268  77.8897707  38.5547427  21.8552276  78.8313229
  38.3963346  21.1529527  77.4995587  27.3885681  24.6990814  65.1789795
  27.5373801  25.3826278  64.5256468  28.1952125  24.6795904  65.6939251
  35.7953185  18.0033196  79.2057013  36.6963048  17.8639661  78.9141011
  35.8701159  18.1687651  80.1455191  30.1295990  15.3800051  78.0510200
  29.2599300  15.6733617  77.7792788  30.3655471  15.9640496  78.7717463
  40.0067619  24.4399210  78.1339728  39.7152428  24.8029190  78.9703189
  39.3939751  23.7266218  77.9553060  41.2063302  22.0052090  70.6542298
  42.0410193  22.4441894  70.8179859  41.3422430  21.5290743  69.8350544
  38.2554808  19.5631825  76.6019786  38.7308929  19.7559471  75.7938637
  37.3320373  19.6191010  76.3563170  25.1438314  20.7255992  66.1850864
  24.8984356  19.8218322  66.3831074  25.3134229  20.7273142  65.2430342
  32.8335024  11.5979668  75.5675620  33.3516968  12.3340695  75.2422109
  32.4790157  11.9043661  76.4022379  24.4133962  16.4584349  63.6837026
  23.7203207  16.5328704  63.0277062  24.1685714  15.6944693  64.2058543
  33.0847618   8.0179951  71.0876517  33.3649372   7.3503140  71.7136943
  33.8698225   8.2109046  70.5751180  30.8881087  27.1938945  62.6501543
  30.3155054  27.8129132  62.1972015  31.4613880  27.7438306  63.1841465
  36.9556477  16.4397585  74.8348092  37.9073899  16.5395682  74.8560316
  36.7859927  15.6475853  75.3446176  34.9770856  13.5253168  75.0207493
  34.3820788  13.8058181  74.3253981  34.6920553  14.0147069  75.7924234
  34.1078346  27.4776095  63.7810125  35.0409020  27.4121656  63.9843001
  34.0201559  28.3132361  63.3224658  36.7366363  26.7941965  60.7414073
  36.6579995  26.4601829  61.6349831  37.5576030  27.2863733  60.7405545
  39.4344554  19.6603704  73.9490391  39.4020874  18.7219705  74.1350075
  40.0445178  19.7387741  73.2156216  31.2727885  18.5299757  59.9917595
  32.2186990  18.4005965  60.0606013  30.8942130  17.7914419  60.4687024
  39.5839043  16.4514748  73.9948675  39.0678091  15.6673204  73.8078603
  40.4678991  16.1233464  74.1595194  37.2449770  10.1955763  69.9544487
  37.0474591   9.8870851  70.8387819  37.8549475  10.9217402  70.0842417
  45.2521104  20.7219711  73.0896428  45.9824493  20.4604999  73.6504131
  44.6428050  19.9848433  73.1298496  43.3336401  18.8627574  73.6870879
  42.6069565  18.7283539  73.0787371  42.9183688  19.1704402  74.4927597
  31.1566578  22.5817503  81.4518252  32.0769587  22.7596102  81.6458299
  31.1216161  21.6373549  81.2997952  29.4570802  16.4549734  59.9272481
  28.5502258  16.1582846  60.0035194  29.7346783  16.1579552  59.0606767
  20.3748743  17.7756097  70.3771527  20.0551527  16.9221405  70.0845901
  19.8282171  17.9904675  71.1329494  24.1528650  20.4918538  74.0941034
  24.3714660  21.4235646  74.1129067  24.5654424  20.1326512  74.8795837
  31.0732868  10.9986623  66.0816722  30.2633596  10.6533708  66.4571968
  31.7617285  10.6894167  66.6704333  33.0023416  10.0764670  67.7041019
  33.5554455  10.4960124  68.3631042  33.2393503   9.1500418  67.7463975
  29.0256516  16.0651744  83.4843782  28.9253242  17.0146101  83.4155874
  28.8078058  15.7369983  82.6119853  28.2269587  13.3136669  60.0684460
  29.0888751  13.6391567  60.3280277  28.4119931  12.5268165  59.5557526
  20.2437003  21.3959009  72.3464649  19.5500474  20.9812961  71.8334603
  20.9909994  21.4379545  71.7498067  36.3802223  12.1865195  67.2119683
  35.8000892  12.8449999  66.8297735  36.1138156  11.3642540  66.8007100
  34.8305790  11.5870253  69.4141003  35.3305568  11.6986788  68.6055322
  35.4741398  11.2831306  70.0541812  28.8887786  19.4948883  82.3008844
  28.4054867  20.2949243  82.5072733  28.9748725  19.5056828  81.3476288
  22.1573745  21.3277262  70.2230663  22.1344433  21.4264950  69.2712547
  22.4674382  22.1742413  70.5447830  24.8161123  23.3853417  74.3377278
  25.7704377  23.3537360  74.2707209  24.6173647  22.9244041  75.1527504
  25.4060505  21.9554533  76.9048076  26.2253394  22.4498612  76.9282913
  25.6797313  21.0386502  76.8765643  35.1627101  14.3465286  66.2676031
  34.2752956  14.6314936  66.0496226  35.5781091  14.1859049  65.4203308
  38.5141638  14.3711807  69.9830370  39.2902028  14.8608259  70.2554987
  37.7889772  14.7969861  70.4402240  40.9514196  15.0839426  71.0404311
  41.5458687  14.8435162  70.3297619  41.0240780  14.3646556  71.6677847
  23.1711352  28.9273037  71.3547476  23.0365820  28.1673438  70.7885474
  22.7543414  29.6513937  70.8876265  34.3070315  24.1109960  60.3624051
  35.0106165  24.3159963  60.9781707  33.5832964  24.6786722  60.6273135
  35.1368125  19.8619822  66.4826321  35.0803327  20.3188373  65.6433954
  35.6896468  19.1010506  66.3049164  38.9472931  15.6509554  67.3076441
  38.6909865  15.2506189  68.1384648  38.3225799  16.3653347  67.1826580
  43.2585269  18.3905627  69.8147732  42.6984827  18.4598816  70.5879294
  42.6528772  18.2146611  69.0947228  26.3280478  29.8242354  71.5665918
  26.2112862  30.7687786  71.4644609  25.5072924  29.5215915  71.9551718
  36.2157012  24.5492490  62.4122511  37.0502616  24.1173688  62.2299986
  36.0541355  24.3774503  63.3399406  35.8702904  21.0524603  63.7778850
  35.8151708  20.8868874  62.8367294  35.2448960  21.7600636  63.9341040
  20.6595419  16.2892667  77.6040273  21.3054283  15.7791621  78.0927498
  20.4512571  17.0261349  78.1783698  33.1848812  23.3573515  83.1032413
  34.0539971  23.5314167  82.7419048  32.7055563  24.1767932  82.9808143
  29.1799030  10.5532712  63.3564169  29.1677700  11.4974552  63.5132440
  30.0722452  10.3702857  63.0623630  27.3534992  30.4770616  74.7821847
  28.2562239  30.5094226  75.0988342  27.1272362  29.5471067  74.7968183
  29.1088594  29.2301602  71.4431925  28.1584225  29.2303464  71.3296298
  29.4121080  28.4834337  70.9267960  32.9951149   7.1475489  67.6110106
  32.2283545   6.5933975  67.7566788  33.4061854   7.2197357  68.4724257
  24.9992910  13.4360284  81.7015287  25.8624372  13.0797089  81.9118611
  24.4258321  13.0974179  82.3890691  41.6530994  35.0189569  72.4439213
  41.3149505  34.9030634  71.5559747  42.5220762  34.6180734  72.4240219
  37.5117809  36.8725045  68.4336103  36.9482675  36.7814982  67.6652391
  37.3970204  36.0524950  68.9138596  42.1350777  36.1724421  78.4025418
  42.1239417  35.7777219  77.5305922  42.2971416  35.4390493  78.9959190
  35.0582241  38.3676237  71.2720324  35.8503533  38.0267061  70.8566623
  35.2978891  38.4771212  72.1922477  43.0917368  40.5396013  63.7450568
  42.4405348  41.1250093  63.3584582  43.8861731  41.0702208  63.8045606
  37.0172995  37.6285150  64.1437703  37.7903871  37.0814137  64.0050579
  37.3698394  38.4929399  64.3552164  38.8558038  38.9561532  77.3504602
  38.5647904  39.8607163  77.2351268  39.4915022  38.9978060  78.0648672
  39.7814245  36.3338381  73.9405962  40.3777817  36.1094403  73.2262925
  39.8389216  35.5923126  74.5431410  39.3539273  33.7877816  61.7756153
  39.6064794  33.2659337  61.0139616  38.4163832  33.6243962  61.8782836
  44.3982556  32.7913595  69.5830896  45.1845645  32.3733018  69.2321313
  44.6621260  33.6959687  69.7512544  44.5692633  38.2286445  64.2819553
  43.9338466  38.3021071  64.9940457  44.2390040  38.8180044  63.6038632
  49.7990983  32.7288828  70.4863874  50.5316155  32.1588045  70.7201704
  49.0430339  32.3410428  70.9270380  39.0735562  35.6905922  63.9780528
  38.9571820  35.0150826  64.6461612  39.1837822  35.2038296  63.1612681
  41.4167103  35.1516069  67.6827217  41.0525310  34.6246690  68.3940138
  42.2734219  34.7614538  67.5093702  47.3216403  26.4410402  74.9458483
  46.9899728  27.3105813  74.7219698  46.7262017  26.1246686  75.6252513
  41.0572590  30.1805969  62.6788565  41.2246992  31.0486205  63.0459036
  40.8669759  30.3433251  61.7549855  37.2660404  35.0936745  70.3791100
  36.3410901  34.9612959  70.5868792  37.5144818  35.8730964  70.8761043
  47.2145067  31.1605488  72.0251833  46.3061944  31.0920896  71.7310594
  47.1632662  31.6377433  72.8533659  41.0361811  32.6363626  63.6635232
  40.9161436  33.0820677  64.5020712  40.3414399  32.9848944  63.1048770
  34.6269215  34.7370018  71.2134889  34.7561597  34.9904497  72.1274301
  33.9466667  35.3297726  70.8939544  38.7968703  45.4067268  67.3125363
  38.7192732  46.3575093  67.3913844  38.1930346  45.0613141  67.9700290
  41.2885932  32.5795134  79.9686730  40.5119267  33.1389054  79.9589595
  41.9276496  33.0651917  80.4901600  49.0806713  29.3621926  73.8029707
  48.4381093  29.6554460  73.1569502  48.5761642  29.2474847  74.6082904
  46.7346877  33.1085100  64.4915566  47.6464733  33.3412486  64.3163264
  46.2256524  33.6922144  63.9290645  39.5432305  35.3880587  79.5304697
  40.2846989  35.9265631  79.2539521  38.8369290  36.0146876  79.6876249
  41.3718714  32.4682334  75.5010416  42.2179910  32.8921748  75.6445065
  41.3117352  31.8115959  76.1948979  44.5218160  30.1286703  77.1591589
  44.2779092  30.8828763  76.6225865  44.7978090  30.5072050  77.9938836
  44.0782852  29.2843136  72.7405427  43.2167331  29.5824389  73.0322165
  44.1045286  29.5013534  71.8086460  40.8944421  37.8285326  69.1479233
  41.3582766  38.1073029  68.3583855  40.6301219  36.9268771  68.9652323
  37.7868502  37.3756808  72.0858996  38.3569859  37.8044076  71.4476481
  38.3776614  37.0939392  72.7843182  39.8313307  33.9508479  65.9568798
  40.5337350  34.4029522  66.4242724  39.4993935  33.3092297  66.5848691
  38.2793669  32.5420235  80.3320007  37.6492329  33.2236516  80.5655404
  38.1729756  32.4303317  79.3873146  33.5738641  32.2092031  71.2585931
  32.7837695  32.4649560  70.7826042  34.0649888  33.0240369  71.3637972
  35.5253386  32.5736610  68.2169408  34.7284550  32.6855305  68.7352904
  35.2978979  32.9123263  67.3510299  41.3559054  39.0981314  76.1651923
  41.4203486  39.5601721  77.0010095  40.6469978  38.4678679  76.2934233
  31.8576344  32.4622522  73.6900922  32.1084382  33.3469532  73.9558498
  32.3935892  32.2827123  72.9176014  41.0707072  40.7649421  66.0330903
  40.9352746  41.6100957  66.4615751  41.6116884  40.9668699  65.2696837
  37.5574411  26.8441001  82.6945258  37.1641357  26.2907200  83.3692903
  38.3740552  27.1551579  83.0851776  34.5236469  38.2824859  66.6058828
  35.0360990  39.0768109  66.7564393  35.1759182  37.5851150  66.5392430
  36.3331354  41.3990615  68.6881581  36.5097982  42.3208580  68.5002565
  37.1288187  41.0849035  69.1175961  40.4742372  28.2598880  80.2865515
  41.2152086  28.8606033  80.2069977  40.7060295  27.5176518  79.7283557
  35.6183710  33.4455247  78.5643745  35.5037225  32.5440505  78.8650844
  34.7628228  33.6918944  78.2128561  42.6975548  41.3872988  80.1631245
  42.2539402  40.6009366  79.8452150  43.3592762  41.5752138  79.4975136
  37.4562669  42.9168789  74.6891924  38.0070094  42.7885853  73.9168918
  36.6174145  43.2163678  74.3386817  44.7956786  41.6675788  78.1912646
  44.7775261  42.4884669  77.6992916  45.7176706  41.5429863  78.4162788
  41.2529840  39.1819917  79.0336155  41.7858177  38.4208205  78.8035463
  40.7243921  38.8893569  79.7760309  44.4199535  24.2879983  74.5629797
  44.0763805  25.1781625  74.4868907  44.7878498  24.0981641  73.6999382
  32.4885386  36.6113513  67.3818399  33.3260608  37.0210522  67.1652106
  32.6663653  35.6712956  67.3518593  44.3849818  34.2788594  63.0702232
  43.8696441  35.0493199  63.3090619  44.1127126  33.6053730  63.6935293
  41.9696929  29.1238295  68.1287470  41.1138525  28.7345145  67.9493109
  42.3823881  29.2030256  67.2687256  43.4996076  26.6584638  72.5279030
  42.9960871  26.6214773  71.7146835  43.7926682  27.5677381  72.5875687
  39.7438961  26.7423368  71.5345212  40.6091958  26.5466177  71.1751101
  39.8116470  26.5133720  72.4614568  49.3584092  37.0320949  65.0055405
  48.5813535  36.6932108  64.5610567  50.0375573  37.0373572  64.3310370
  44.1736121  32.1515686  64.8962013  43.8686257  32.4661835  65.7472156
  45.1266563  32.2297106  64.9389346  42.6182553  38.3105910  66.5454967
  42.0903914  37.5758669  66.2328204  42.1170056  39.0880586  66.2994935
  37.3501281  28.9725576  68.9061578  37.9245032  28.7500757  68.1734771
  37.9372263  29.0414270  69.6590180  46.4080858  34.8599303  69.7125955
  46.9212739  35.4929295  70.2147665  47.0582082  34.2600498  69.3469315
  37.6770868  31.0030037  62.9257464  36.8408180  31.3404723  63.2466738
  37.5375637  30.8679017  61.9884601  39.6523948  25.8466825  67.6336648
  38.9988361  25.5315842  67.0093263  39.6104422  25.2242565  68.3596471
  40.7635153  36.1286120  59.5489940  39.8562215  35.8975373  59.7481089
  41.2606185  35.3323739  59.7363921  43.6703232  44.8383627  62.4686626
  42.9964931  45.1415324  63.0771584  44.0569054  45.6412707  62.1192083
  42.8861689  32.3348758  71.9584295  41.9684250  32.5563705  71.8005984
  43.3021832  32.4095069  71.0996003  43.6696736  33.7340174  67.0886976
  44.4168555  34.2461571  66.7794098  43.9388326  33.4124227  67.9491369
  41.9423387  36.2298715  64.0713930  41.0334606  35.9457748  64.1686400
  41.9718470  36.6497793  63.2117237  47.1742654  39.8405304  67.8405098
  46.7204981  38.9996214  67.8970288  46.5436621  40.4766703  68.1779878
  46.1175574  30.7697290  69.0705765  45.3798330  30.2574676  69.4016008
  46.3702347  30.3297672  68.2589042  45.6175593  41.6781801  68.7754916
  45.9098568  42.2386858  68.0567281  46.1274214  41.9710362  69.5308075
  46.2187201  23.5473542  69.6647534  46.5246078  22.6870906  69.3773449
  46.9439806  24.1391162  69.4646528  32.5111557  33.9504229  68.0529132
  32.3135957  33.3573590  67.3280199  31.9558221  33.6456439  68.7705071
  40.4908281  33.8427335  70.1723725  40.5456890  32.8901172  70.0966202
  39.6799483  33.9986774  70.6565024  41.6399474  37.7707458  61.4102009
  41.2018904  37.0543317  60.9507646  42.3809915  37.9983573  60.8487100
  38.4300640  32.4604395  67.9314104  37.6168506  32.7598566  68.3379296
  38.9259635  32.0660084  68.6488586  40.5809218  42.4562152  69.8648369
  40.5385397  42.6822998  68.9356901  41.4971917  42.2225527  70.0134170
  44.0274852  32.9246220  76.7628998  44.3824240  33.1517693  77.6223464
  44.6746983  33.2564596  76.1406253  37.9214715  30.0322751  73.5475339
  38.5614095  29.8911510  72.8498302  37.0892246  29.7457264  73.1713941
  38.6975019  39.3325181  69.6610332  39.4915618  38.8375501  69.4592907
  37.9866712  38.8043044  69.2978037  43.5169864  41.7143277  74.0122699
  43.5706886  42.2834213  74.7800415  42.6484645  41.8845162  73.6476736
  35.0057783  33.4768263  65.7370084  34.0755371  33.4152718  65.9540046
  35.1015255  32.9544215  64.9406726  34.9243332  30.0023076  68.3248326
  35.1850149  30.9168409  68.2157486  35.7460504  29.5347518  68.4744939
  36.3968257  31.4160833  75.4947150  37.0691310  31.2078195  74.8459799
  35.5698044  31.2182919  75.0552383  42.2993829  28.0422774  77.5112811
  41.6521744  28.7412723  77.4177288  43.0694844  28.4758918  77.8789060
  45.7072627  38.3071626  80.5863365  45.5558133  38.0782178  79.6693448
  45.6977306  39.2642227  80.5994710  42.4757963  35.8803539  75.5709631
  43.4050023  36.0314698  75.3978598  42.0548993  35.9687559  74.7158278
  41.2746295  39.9054203  73.3408169  41.1357381  39.5372987  74.2134107
  40.4860891  40.4201842  73.1692127  41.8694447  45.0063299  64.6833705
  42.0446203  44.5351343  65.4979328  41.1827235  45.6329066  64.9114966
  42.8251510  39.2835806  70.7297007  42.4901343  39.2436576  71.6254656
  42.3255456  38.6180522  70.2567417  36.7995754  34.6903436  76.2549588
  36.6615552  33.9583675  76.8561127  37.7100678  34.6012336  75.9733775
  45.7610702  36.6291840  61.0034066  45.1439873  35.9038668  60.9067119
  45.2927190  37.3901200  60.6601140  39.4278055  34.4023395  75.7433267
  40.1377673  33.7616587  75.7019886  39.3847363  34.6536290  76.6659448
  38.1406989  31.3888613  77.5628907  37.6044346  30.9379351  78.2150503
  37.5523697  31.5234522  76.8199371  36.4355532  48.1552662  71.4573565
  36.6752131  48.7871186  72.1352584  35.5924729  47.8040702  71.7438925
  37.5509248  30.8477264  60.1255370  36.6738714  30.7266065  59.7617617
  38.0267001  30.0563343  59.8734259  29.0711388  35.6354424  70.2196878
  29.7582428  35.3216154  69.6317893  28.9159517  36.5395789  69.9464129
  33.8746110  30.5244621  74.6481901  33.7904299  29.9170290  73.9132311
  33.0528817  31.0153639  74.6491398  40.9483394  43.9631785  73.8615069
  40.8753566  44.7686756  74.3734374  40.5060787  44.1623750  73.0363091
  40.7373174  43.2003555  67.3717891  39.9540696  43.7425235  67.4656115
  41.4365919  43.7177534  67.7712132  44.0469824  29.0098184  70.0152096
  44.5438524  28.2568146  69.6953167  43.2756806  29.0462501  69.4495306
  43.4082078  43.8618619  76.0173228  44.1210050  44.4966083  75.9449130
  42.9172106  43.9582485  75.2013230  45.1299605  37.7669871  67.5890520
  44.1955883  37.8871334  67.4195224  45.3076273  36.8642338  67.3250530
  40.6304793  31.1515567  69.7423781  40.2602580  30.5986608  70.4304687
  41.1263885  30.5473701  69.1898781  48.5172156  33.6087191  68.1240554
  48.9832608  34.4415182  68.0500857  48.9679657  33.1432172  68.8285812
  38.4593991  41.6113062  76.8378799  39.1603451  42.2449545  76.9908193
  37.9889106  41.9527794  76.0774438  46.5848387  39.9531012  65.1226706
  46.8608231  39.8387607  66.0320580  45.7152886  39.5548497  65.0838879
  46.4888819  25.9767778  72.1631455  45.5751899  26.2072004  72.3313662
  46.9181920  26.0606222  73.0145488  43.2202451  44.2017363  68.7659520
  43.4024846  43.3839019  69.2287272  44.0435437  44.4185055  68.3284410
  43.5544617  43.1285548  66.0274568  44.0832383  42.6178002  65.4144730
  43.8172836  42.8128078  66.8920101  42.3082850  34.9077481  81.1497386
  41.6323487  34.8071610  81.8199762  43.1310484  34.7516694  81.6133384
  34.0561709  41.1449417  73.7709902  34.6415146  40.3993105  73.9037806
  33.8586548  41.4553374  74.6546565  36.9100365  44.1800665  68.7872344
  36.2410740  44.6646792  68.3036384  36.7713234  44.4269885  69.7015722
  28.6479364  33.7155017  72.4914345  28.6863464  33.1818608  73.2851463
  28.1419657  33.1890223  71.8725322  41.0505633  46.2144408  75.3855002
  41.6023941  46.3776030  76.1504088  41.3911827  46.8048846  74.7135027
  36.0270126  28.5619558  75.9876887  36.0911453  29.4234389  75.5754285
  35.9637247  27.9493560  75.2549246  35.5022399  30.6342690  79.6349921
  36.1294438  30.2519768  80.2487446  34.6450318  30.4156892  80.0005614
  32.2787942  32.4419120  65.5668276  32.5741383  31.5329798  65.5135330
  31.3775977  32.4206859  65.2449278  44.1874020  44.1626384  72.3718684
  44.0625160  43.3616123  71.8629630  44.8453112  44.6572577  71.8832654
  35.8082189  30.5175116  71.5495825  35.0868774  31.1311084  71.4103298
  36.5975444  31.0532881  71.4712471  38.6108502  27.8529543  77.8236476
  39.1342904  28.0991839  78.5862786  38.3920835  28.6849577  77.4039614
  34.0075783  30.1233217  65.6907601  33.6788489  29.2430596  65.5082707
  34.3615154  30.0680886  66.5783990  43.2555362  41.7588120  70.2002587
  43.1080325  40.8304827  70.3810157  44.0808856  41.7808211  69.7159662
  37.1217606  30.4106187  66.0583079  37.4613679  30.9392108  65.3361687
  37.5689727  30.7486593  66.8341645  46.8589484  42.5816679  71.2867460
  47.7836031  42.3759540  71.1491911  46.6904787  42.3333080  72.1956801
  39.8161047  28.7943238  75.5086147  39.4757868  27.9951051  75.9106827
  39.1100054  29.0944949  74.9362980  40.4677519  25.8792550  73.9613470
  41.2903588  25.4053028  73.8392360  40.7115583  26.6583034  74.4612156
  39.1085754  28.9080809  64.2576372  39.8294116  29.2862061  63.7540089
  38.4851058  29.6269685  64.3611350  43.2516876  29.6125958  65.1934704
  43.4680491  30.4950595  64.8923532  42.7710944  29.2212171  64.4640346
  37.9916098  32.5711671  71.7705449  37.8460679  32.8851974  72.6629730
  37.5141301  33.1896571  71.2176347  39.8512481  29.5614219  71.8186338
  39.8374049  28.6655312  71.4818636  40.5684909  29.5684883  72.4524624
  41.7038611  29.9951559  73.8639466  41.4456389  30.9168630  73.8623796
  41.1723652  29.5981994  74.5539930  46.6484800  43.1002346  66.6429551
  46.8221678  42.5348769  65.8903403  47.1413691  43.9003241  66.4609041
  32.4661760  35.1117015  74.7093110  31.9215228  35.8876823  74.8413384
  33.3441110  35.4587820  74.5512231  39.2549377  28.4428599  67.0873908
  39.3765288  27.5145245  67.2864796  38.9651419  28.4567285  66.1752224
  42.1240567  26.1283509  70.2240628  42.1462264  26.1922843  69.2692608
  42.5408626  25.2888018  70.4181134  47.6359973  42.4169111  63.7426449
  48.3310877  43.0375803  63.9613764  47.9783123  41.5664462  64.0178827
  33.2527782  34.2386911  77.6023267  32.5109518  34.3869547  78.1887897
  32.9320526  34.4995177  76.7390016  49.5351396  39.8668816  65.2713780
  50.0602720  40.2056089  64.5463100  49.4473748  38.9315831  65.0876915
  41.1971445  43.7802890  77.4003657  41.5058571  43.5352036  78.2726356
  41.9946927  43.9849528  76.9122527  41.2192057  45.9340799  69.6309033
  40.7797047  45.4417178  70.3241890  41.9700174  45.3913767  69.3901108
  33.6984396  42.1252340  69.6333661  34.5242415  41.8256112  69.2532305
  33.3478448  41.3559963  70.0823450  38.6665929  41.4778808  71.7031335
  38.0445938  40.8149513  71.4033563  39.3370796  41.5039940  71.0204983
  31.8993001  40.0438667  70.5922595  31.0624909  39.6160841  70.4106596
  31.8716646  40.2371110  71.5293386  38.7390456  29.9560596  81.2963841
  38.7878612  30.8322719  80.9141611  39.2812970  29.4137989  80.7235484
  38.2279436  40.0282732  65.1789795  38.3767556  40.7118196  64.5256468
  39.0345879  40.0087822  65.6939251  46.6346939  33.3325114  79.2057013
  47.5356802  33.1931579  78.9141011  46.7094914  33.4979569  80.1455191
  40.9689745  30.7091969  78.0510200  40.0993054  31.0025535  77.7792788
  41.2049225  31.2932414  78.7717463  35.9832069  36.0547909  66.1850864
  35.7378111  35.1510239  66.3831074  36.1527983  36.0565060  65.2430342
  43.6728778  26.9271586  75.5675620  44.1910722  27.6632613  75.2422109
  43.3183911  27.2335579  76.4022379  35.2527716  31.7876267  63.6837026
  34.5596961  31.8620622  63.0277062  35.0079468  31.0236611  64.2058543
  43.9241373  23.3471868  71.0876517  44.2043126  22.6795057  71.7136943
  44.7091980  23.5400964  70.5751180  41.7274841  42.5230862  62.6501543
  41.1548808  43.1421049  62.1972015  42.3007635  43.0730224  63.1841465
  47.7950231  31.7689502  74.8348092  48.7467654  31.8687600  74.8560316
  47.6253681  30.9767771  75.3446176  45.8164610  28.8545085  75.0207493
  45.2214543  29.1350098  74.3253981  45.5314307  29.3438986  75.7924234
  44.9472101  42.8068012  63.7810125  45.8802774  42.7413574  63.9843001
  44.8595314  43.6424279  63.3224658  47.5760118  42.1233883  60.7414073
  47.4973749  41.7893746  61.6349831  48.3969784  42.6155651  60.7405545
  42.1121640  33.8591675  59.9917595  43.0580744  33.7297883  60.0606013
  41.7335885  33.1206337  60.4687024  50.4232797  31.7806665  73.9948675
  49.9071846  30.9965122  73.8078603  51.3072746  31.4525382  74.1595194
  48.0843524  25.5247681  69.9544487  47.8868345  25.2162769  70.8387819
  48.6943230  26.2509320  70.0842417  41.9960332  37.9109421  81.4518252
  42.9163342  38.0888020  81.6458299  41.9609915  36.9665466  81.2997952
  40.2964557  31.7841651  59.9272481  39.3896012  31.4874764  60.0035194
  40.5740538  31.4871469  59.0606767  31.2142497  33.1048015  70.3771527
  30.8945282  32.2513323  70.0845901  30.6675925  33.3196593  71.1329494
  34.9922405  35.8210456  74.0941034  35.2108415  36.7527564  74.1129067
  35.4048179  35.4618430  74.8795837  41.9126623  26.3278541  66.0816722
  41.1027351  25.9825626  66.4571968  42.6011039  26.0186085  66.6704333
  43.8417171  25.4056588  67.7041019  44.3948209  25.8252041  68.3631042
  44.0787257  24.4792336  67.7463975  39.8650270  31.3943661  83.4843782
  39.7646997  32.3438018  83.4155874  39.6471812  31.0661900  82.6119853
  39.0663341  28.6428587  60.0684460  39.9282505  28.9683485  60.3280277
  39.2513686  27.8560082  59.5557526  31.0830757  36.7250926  72.3464649
  30.3894229  36.3104879  71.8334603  31.8303748  36.7671463  71.7498067
  47.2195978  27.5157113  67.2119683  46.6394647  28.1741917  66.8297735
  46.9531911  26.6934458  66.8007100  45.6699544  26.9162171  69.4141003
  46.1699323  27.0278705  68.6055322  46.3135152  26.6123224  70.0541812
  39.7281540  34.8240800  82.3008844  39.2448622  35.6241160  82.5072733
  39.8142479  34.8348745  81.3476288  32.9967500  36.6569180  70.2230663
  32.9738188  36.7556867  69.2712547  33.3068136  37.5034331  70.5447830
  35.6554878  38.7145335  74.3377278  36.6098131  38.6829277  74.2707209
  35.4567401  38.2535959  75.1527504  36.2454260  37.2846451  76.9048076
  37.0647149  37.7790530  76.9282913  36.5191067  36.3678419  76.8765643
  46.0020856  29.6757203  66.2676031  45.1146711  29.9606854  66.0496226
  46.4174845  29.5150967  65.4203308  49.3535392  29.7003724  69.9830370
  50.1295782  30.1900177  70.2554987  48.6283526  30.1261779  70.4402240
  34.0105106  44.2564955  71.3547476  33.8759574  43.4965355  70.7885474
  33.5937169  44.9805854  70.8876265  45.1464069  39.4401878  60.3624051
  45.8499920  39.6451881  60.9781707  44.4226718  40.0078640  60.6273135
  45.9761880  35.1911739  66.4826321  45.9197081  35.6480291  65.6433954
  46.5290222  34.4302424  66.3049164  37.1674232  45.1534272  71.5665918
  37.0506616  46.0979704  71.4644609  36.3466679  44.8507833  71.9551718
  47.0550767  39.8784407  62.4122511  47.8896371  39.4465606  62.2299986
  46.8935110  39.7066421  63.3399406  46.7096659  36.3816521  63.7778850
  46.6545463  36.2160792  62.8367294  46.0842714  37.0892553  63.9341040
  31.4989174  31.6184585  77.6040273  32.1448038  31.1083539  78.0927498
  31.2906325  32.3553267  78.1783698  44.0242566  38.6865432  83.1032413
  44.8933726  38.8606085  82.7419048  43.5449318  39.5059849  82.9808143
  40.0192784  25.8824630  63.3564169  40.0071454  26.8266470  63.5132440
  40.9116206  25.6994775  63.0623630  38.1928746  45.8062533  74.7821847
  39.0955993  45.8386144  75.0988342  37.9666116  44.8762984  74.7968183
  39.9482348  44.5593520  71.4431925  38.9977979  44.5595382  71.3296298
  40.2514835  43.8126255  70.9267960  43.8344904  22.4767406  67.6110106
  43.0677300  21.9225893  67.7566788  44.2455609  22.5489275  68.4724257
  35.8386665  28.7652202  81.7015287  36.7018127  28.4089007  81.9118611
  35.2652076  28.4266097  82.3890691  51.8966344  45.5097887  62.6788565
  52.0640747  46.3778123  63.0459036  51.7063513  45.6725168  61.7549855
  51.8755565  47.9655544  63.6635232  51.7555190  48.4112595  64.5020712
  51.1808153  48.3140862  63.1048770  44.4132395  47.5383949  71.2585931
  43.6231449  47.7941477  70.7826042  44.9043643  48.3532287  71.3637972
  42.6970098  47.7914439  73.6900922  42.9478137  48.6761449  73.9558498
  43.2329647  47.6119041  72.9176014  46.4577465  48.7747165  78.5643745
  46.3430980  47.8732422  78.8650844  45.6021982  49.0210862  78.2128561
  43.3279140  51.9405431  67.3818399  44.1654362  52.3502440  67.1652106
  43.5057408  51.0004873  67.3518593  48.5164622  46.3321955  62.9257464
  47.6801934  46.6696641  63.2466738  48.3769392  46.1970934  61.9884601
  48.3903002  46.1769182  60.1255370  47.5132469  46.0557983  59.7617617
  48.8660755  45.3855260  59.8734259  39.9105142  50.9646342  70.2196878
  40.5976182  50.6508072  69.6317893  39.7553271  51.8687706  69.9464129
  44.7139865  45.8536538  74.6481901  44.6298053  45.2462208  73.9132311
  43.8922571  46.3445557  74.6491398  39.4873119  49.0446935  72.4914345
  39.5257218  48.5110526  73.2851463  38.9813411  48.5182141  71.8725322
  43.1181696  47.7711037  65.5668276  43.4135137  46.8621716  65.5135330
  42.2169732  47.7498777  65.2449278  44.8469538  45.4525135  65.6907601
  44.5182244  44.5722514  65.5082707  45.2008908  45.3972804  66.5783990
  49.9479508  44.2372726  64.2576372  50.6687871  44.6153979  63.7540089
  49.3244812  44.9561603  64.3611350  44.0921536  49.5678829  77.6023267
  43.3503272  49.7161464  78.1887897  43.7714281  49.8287095  76.7390016
  42.7386755  55.3730584  70.5922595  41.9018663  54.9452759  70.4106596
  42.7110401  55.5663028  71.5293386  46.0921471  47.1168185  63.6837026
  45.3990716  47.1912540  63.0277062  45.8473223  46.3528528  64.2058543
  52.9515394  49.1883593  59.9917595  53.8974499  49.0589801  60.0606013
  52.5729639  48.4498255  60.4687024  42.0536252  48.4339932  70.3771527
  41.7339036  47.5805241  70.0845901  41.5069680  48.6488511  71.1329494
  49.9057096  43.9720504  60.0684460  50.7676260  44.2975403  60.3280277
  50.0907440  43.1852000  59.5557526  41.9224512  52.0542844  72.3464649
  41.2287983  51.6396797  71.8334603  42.6697503  52.0963380  71.7498067
  42.3382928  46.9476503  77.6040273  42.9841792  46.4375457  78.0927498
  42.1300080  47.6845184  78.1783698  50.8586539  41.2116547  63.3564169
  50.8465209  42.1558387  63.5132440  51.7509961  41.0286693  63.0623630
  57.1809908  61.2926526  79.6349921  57.8081947  60.9103603  80.2487446
  56.3237827  61.0740728  80.0005614  75.8517665  64.8503327  73.6870879
  75.1250828  64.7159292  73.0787371  75.4364952  65.1580155  74.4927597
  65.7030075  69.3449268  83.1032413  66.5721235  69.5189920  82.7419048
  65.2236827  70.1643685  82.9808143  77.3622551  81.0537894  72.5077688
  78.0000961  80.9344641  71.8041028  77.2443394  82.0018738  72.5665640
  74.1712257  81.0065322  72.4439213  73.8330769  80.8906387  71.5559747
  75.0402025  80.6056487  72.4240219  70.0299073  82.8600798  68.4336103
  69.4663938  82.7690735  67.6652391  69.9151468  82.0400703  68.9138596
  74.6532040  82.1600174  78.4025418  74.6420681  81.7652972  77.5305922
  74.8152680  81.4266246  78.9959190  67.5763505  84.3551990  71.2720324
  68.3684797  84.0142814  70.8566623  67.8160155  84.4646965  72.1922477
  75.6098632  86.5271766  63.7450568  74.9586611  87.1125846  63.3584582
  76.4042994  87.0577961  63.8045606  69.5354259  83.6160903  64.1437703
  70.3085135  83.0689890  64.0050579  69.8879658  84.4805152  64.3552164
  71.3739301  84.9437285  77.3504602  71.0829167  85.8482916  77.2351268
  72.0096286  84.9853813  78.0648672  72.2995508  82.3214134  73.9405962
  72.8959080  82.0970156  73.2262925  72.3570480  81.5798879  74.5431410
  71.8720537  79.7753569  61.7756153  72.1246057  79.2535090  61.0139616
  70.9345096  79.6119715  61.8782836  77.0873897  84.2162198  64.2819553
  76.4519730  84.2896824  64.9940457  76.7571303  84.8055797  63.6038632
  82.3172246  78.7164581  70.4863874  83.0497418  78.1463798  70.7201704
  81.5611602  78.3286181  70.9270380  71.5916825  81.6781675  63.9780528
  71.4753083  81.0026579  64.6461612  71.7019085  81.1914049  63.1612681
  73.9348366  81.1391822  67.6827217  73.5706573  80.6122443  68.3940138
  74.7915482  80.7490291  67.5093702  73.5753853  76.1681722  62.6788565
  73.7428256  77.0361958  63.0459036  73.3851022  76.3309004  61.7549855
  76.3329186  84.6298701  74.3454396  76.0329909  85.5323740  74.2370203
  75.9880246  84.3630884  75.1975549  79.7326330  77.1481241  72.0251833
  78.8243207  77.0796649  71.7310594  79.6813926  77.6253186  72.8533659
  73.5543074  78.6239379  63.6635232  73.4342699  79.0696430  64.5020712
  72.8595662  78.9724697  63.1048770  71.3149966  91.3943021  67.3125363
  71.2373996  92.3450846  67.3913844  70.7111610  91.0488894  67.9700290
  81.5987977  75.3497679  73.8029707  80.9562357  75.6430213  73.1569502
  81.0942905  75.2350600  74.6082904  79.2528140  79.0960853  64.4915566
  80.1645996  79.3288239  64.3163264  78.7437787  79.6797897  63.9290645
  77.5368908  83.5185480  78.1276859  77.9452264  83.0767891  77.3831491
  76.8146169  82.9438108  78.3811052  77.8597723  84.0786671  71.8829148
  77.2306585  84.2432385  71.1805216  77.4723385  84.4928281  72.6540112
  81.7386954  85.0141109  69.2373511  81.0537993  85.3940010  68.6870545
  81.8230804  85.6236436  69.9705459  78.9937886  82.6601068  75.8368855
  79.2054781  83.3032828  75.1603236  78.9467634  81.8263385  75.3690785
  73.4125684  83.8161079  69.1479233  73.8764030  84.0948782  68.3583855
  73.1482483  82.9144524  68.9652323  70.3049765  83.3632561  72.0858996
  70.8751123  83.7919829  71.4476481  70.8957877  83.0815145  72.7843182
  72.3494570  79.9384232  65.9568798  73.0518614  80.3905275  66.4242724
  72.0175199  79.2968050  66.5848691  80.1083714  85.5373023  74.0091212
  80.9301158  85.1353211  73.7273894  80.1046117  85.4341258  74.9607328
  73.8740317  85.0857067  76.1651923  73.9384750  85.5477474  77.0010095
  73.1651241  84.4554432  76.2934233  88.1989707  81.8811772  70.3576184
  87.4453415  81.3119170  70.2020188  88.3337248  81.8474436  71.3046818
  73.5888335  86.7525174  66.0330903  73.4534010  87.5976710  66.4615751
  74.1298148  86.9544452  65.2696837  68.8512617  87.3866369  68.6881581
  69.0279245  88.3084333  68.5002565  69.6469451  87.0724788  69.1175961
  75.2156811  87.3748741  80.1631245  74.7720666  86.5885119  79.8452150
  75.8774025  87.5627891  79.4975136  69.9743933  88.9044542  74.6891924
  70.5251358  88.7761606  73.9168918  69.1355409  89.2039431  74.3386817
  77.3138050  87.6551541  78.1912646  77.2956525  88.4760422  77.6992916
  78.2357970  87.5305616  78.4162788  73.7711104  85.1695670  79.0336155
  74.3039440  84.4083958  78.8035463  73.2425185  84.8769322  79.7760309
  76.9031081  80.2664347  63.0702232  76.3877705  81.0368952  63.3090619
  76.6308390  79.5929483  63.6935293  81.8765355  83.0196702  65.0055405
  81.0994798  82.6807861  64.5610567  82.5556836  83.0249325  64.3310370
  76.6917385  78.1391439  64.8962013  76.3867520  78.4537588  65.7472156
  77.6447827  78.2172859  64.9389346  75.1363816  84.2981663  66.5454967
  74.6085178  83.5634422  66.2328204  74.6351319  85.0756339  66.2994935
  80.1156662  82.4930683  71.6622013  79.4580337  83.1829944  71.7502142
  80.9197062  82.8827115  72.0056000  78.9262121  80.8475056  69.7125955
  79.4394003  81.4805048  70.2147665  79.5763345  80.2476251  69.3469315
  73.2816417  82.1161873  59.5489940  72.3743478  81.8851126  59.7481089
  73.7787449  81.3199492  59.7363921  76.1884495  90.8259380  62.4686626
  75.5146194  91.1291077  63.0771584  76.5750317  91.6288460  62.1192083
  76.1878000  79.7215927  67.0886976  76.9349819  80.2337324  66.7794098
  76.4569589  79.3999980  67.9491369  74.4604650  82.2174468  64.0713930
  73.5515869  81.9333501  64.1686400  74.4899734  82.6373546  63.2117237
  79.6923917  85.8281057  67.8405098  79.2386245  84.9871967  67.8970288
  79.0617884  86.4642456  68.1779878  78.1356857  87.6657554  68.7754916
  78.4279831  88.2262611  68.0567281  78.6455477  87.9586115  69.5308075
  73.0089544  79.8303088  70.1723725  73.0638154  78.8776925  70.0966202
  72.1980746  79.9862527  70.6565024  74.1580738  83.7583211  61.4102009
  73.7200168  83.0419070  60.9507646  74.8991179  83.9859326  60.8487100
  73.0990482  88.4437905  69.8648369  73.0566661  88.6698751  68.9356901
  74.0153181  88.2101280  70.0134170  82.2753853  82.0340408  67.4678327
  82.1371751  82.2242004  66.5399516  81.9190071  82.7959791  67.9246378
  82.3023232  84.1016935  72.4789599  82.7359739  84.0092225  73.3272653
  83.0154813  84.0774436  71.8409615  71.2156283  85.3200934  69.6610332
  72.0096881  84.8251254  69.4592907  70.5047975  84.7918797  69.2978037
  76.0351127  87.7019030  74.0122699  76.0888149  88.2709966  74.7800415
  75.1665908  87.8720915  73.6476736  83.1638782  84.1440636  75.0122484
  83.3574672  85.0486447  75.2581759  83.0639400  83.6848055  75.8461069
  78.2253890  84.2947379  80.5863365  78.0739397  84.0657931  79.6693448
  78.2158570  85.2517980  80.5994710  74.9939227  81.8679292  75.5709631
  75.9231287  82.0190451  75.3978598  74.5730257  81.9563312  74.7158278
  73.7927559  85.8929956  73.3408169  73.6538644  85.5248740  74.2134107
  73.0042155  86.4077595  73.1692127  74.3875711  90.9939052  64.6833705
  74.5627466  90.5227096  65.4979328  73.7008499  91.6204819  64.9114966
  75.3432774  85.2711559  70.7297007  75.0082606  85.2312329  71.6254656
  74.8436719  84.6056275  70.2567417  78.2791965  82.6167593  61.0034066
  77.6621136  81.8914421  60.9067119  77.8108454  83.3776953  60.6601140
  79.9346097  87.3266501  78.6639847  79.8758643  86.6425722  77.9970430
  80.3365615  88.0685491  78.2120473  68.9536796  94.1428415  71.4573565
  69.1933394  94.7746939  72.1352584  68.1105992  93.7916455  71.7438925
  70.0690511  76.8353017  60.1255370  69.1919978  76.7141818  59.7617617
  70.5448264  76.0439096  59.8734259  79.9363504  85.2906085  76.8953826
  79.0490283  84.9532007  77.0180225  80.5062055  84.5589117  77.1322592
  73.4664658  89.9507538  73.8615069  73.3934829  90.7562509  74.3734374
  73.0242051  90.1499503  73.0363091  73.2554437  89.1879308  67.3717891
  72.4721959  89.7300988  67.4656115  73.9547183  89.7053287  67.7712132
  84.4180845  80.7014303  71.6570388  84.4070721  81.5839018  71.2864321
  83.5498224  80.3485854  71.4624925  75.9263341  89.8494372  76.0173228
  76.6391313  90.4841837  75.9449130  75.4353370  89.9458238  75.2013230
  77.6480868  83.7545624  67.5890520  76.7137147  83.8747087  67.4195224
  77.8257537  82.8518091  67.3250530  81.0353420  79.5962944  68.1240554
  81.5013872  80.4290935  68.0500857  81.4860920  79.1307925  68.8285812
  70.9775255  87.5988815  76.8378799  71.6784714  88.2325298  76.9908193
  70.5070370  87.9403547  76.0774438  79.1029651  85.9406765  65.1226706
  79.3789495  85.8263360  66.0320580  78.2334149  85.5424250  65.0838879
  78.7776541  80.1533423  74.6631349  78.1247991  80.4009330  74.0083802
  79.1556921  79.3397561  74.3293827  75.7383715  90.1893116  68.7659520
  75.9206109  89.3714772  69.2287272  76.5616701  90.4060808  68.3284410
  76.0725880  89.1161301  66.0274568  76.6013647  88.6053756  65.4144730
  76.3354100  88.8003831  66.8920101  74.8264114  80.8953234  81.1497386
  74.1504751  80.7947363  81.8199762  75.6491748  80.7392447  81.6133384
  66.5742973  87.1325170  73.7709902  67.1596410  86.3868858  73.9037806
  66.3767811  87.4429127  74.6546565  69.4281628  90.1676418  68.7872344
  68.7592003  90.6522545  68.3036384  69.2894498  90.4145638  69.7015722
  73.5686897  92.2020161  75.3855002  74.1205205  92.3651783  76.1504088
  73.9093090  92.7924599  74.7135027  78.4197771  87.0281419  81.2403657
  78.9637675  87.6411377  80.7458612  77.8384616  87.5860997  81.7570670
  76.7055284  90.1502137  72.3718684  76.5806423  89.3491876  71.8629630
  77.3634375  90.6448330  71.8832654  78.7690192  87.9511157  73.9998235
  77.8220528  87.8316508  73.9276561  79.1172965  87.0633655  74.0824496
  75.7736626  87.7463873  70.2002587  75.6261588  86.8180580  70.3810157
  76.5990119  87.7683964  69.7159662  79.3770747  88.5692432  71.2867460
  80.3017295  88.3635293  71.1491911  79.2086051  88.3208833  72.1956801
  71.6267017  74.8956562  64.2576372  72.3475380  75.2737814  63.7540089
  71.0032321  75.6145438  64.3611350  75.7698140  75.6001711  65.1934704
  75.9861754  76.4826348  64.8923532  75.2892207  75.2087924  64.4640346
  79.1666064  89.0878099  66.6429551  79.3402941  88.5224522  65.8903403
  79.6594955  89.8878994  66.4609041  85.0205455  81.8514522  68.2619851
  85.4636601  81.1021847  67.8638974  84.1431965  81.8424658  67.8793583
  80.1541236  88.4044864  63.7426449  80.8492141  89.0251556  63.9613764
  80.4964386  87.5540215  64.0178827  82.0532659  85.8544569  65.2713780
  82.5783983  86.1931842  64.5463100  81.9655012  84.9191584  65.0876915
  73.7152708  89.7678643  77.4003657  74.0239834  89.5227789  78.2726356
  74.5128190  89.9725281  76.9122527  73.7373320  91.9216552  69.6309033
  73.2978310  91.4292931  70.3241890  74.4881437  91.3789520  69.3901108
  66.2165659  88.1128093  69.6333661  67.0423679  87.8131865  69.2532305
  65.8659711  87.3435716  70.0823450  71.1847192  87.4654561  71.7031335
  70.5627201  86.8025266  71.4033563  71.8552059  87.4915693  71.0204983
  81.7426565  86.4877473  80.5764978  80.9522109  86.4701612  80.0369477
  81.5059920  87.0265766  81.3314015  81.8624440  83.3369939  77.8897707
  81.9122445  83.1719947  78.8313229  81.7538364  82.4697198  77.4995587
  70.7460699  86.0158485  65.1789795  70.8948819  86.6993949  64.5256468
  71.5527143  85.9963575  65.6939251  79.1528203  79.3200867  79.2057013
  80.0538066  79.1807332  78.9141011  79.2276177  79.4855322  80.1455191
  83.3642637  85.7566881  78.1339728  83.0727446  86.1196861  78.9703189
  82.7514769  85.0433889  77.9553060  84.5638320  83.3219760  70.6542298
  85.3985211  83.7609564  70.8179859  84.6997448  82.8458414  69.8350544
  81.6129825  80.8799495  76.6019786  82.0883947  81.0727142  75.7938637
  80.6895391  80.9358681  76.3563170  68.5013332  82.0423662  66.1850864
  68.2559374  81.1385992  66.3831074  68.6709247  82.0440813  65.2430342
  74.2456105  88.5106615  62.6501543  73.6730072  89.1296802  62.1972015
  74.8188898  89.0605977  63.1841465  80.3131494  77.7565255  74.8348092
  81.2648917  77.8563353  74.8560316  80.1434945  76.9643524  75.3446176
  77.4653364  88.7943765  63.7810125  78.3984038  88.7289327  63.9843001
  77.3776577  89.6300032  63.3224658  80.0941381  88.1109636  60.7414073
  80.0155013  87.7769499  61.6349831  80.9151048  88.6031404  60.7405545
  82.7919572  80.9771375  73.9490391  82.7595892  80.0387376  74.1350075
  83.4020196  81.0555412  73.2156216  74.6302903  79.8467428  59.9917595
  75.5762008  79.7173636  60.0606013  74.2517148  79.1082090  60.4687024
  82.9414061  77.7682418  73.9948675  82.4253109  76.9840875  73.8078603
  83.8254009  77.4401135  74.1595194  88.6096122  82.0387382  73.0896428
  89.3399511  81.7772670  73.6504131  88.0003068  81.3016104  73.1298496
  86.6911419  80.1795244  73.6870879  85.9644583  80.0451209  73.0787371
  86.2758706  80.4872073  74.4927597  74.5141596  83.8985174  81.4518252
  75.4344605  84.0763773  81.6458299  74.4791179  82.9541219  81.2997952
  72.8145820  77.7717404  59.9272481  71.9077276  77.4750517  60.0035194
  73.0921801  77.4747222  59.0606767  79.7377241  73.5032866  67.2119683
  79.1575910  74.1617670  66.8297735  79.4713174  72.6810211  66.8007100
  68.1736141  84.7021088  74.3377278  69.1279395  84.6705030  74.2707209
  67.9748665  84.2411712  75.1527504  78.5202119  75.6632956  66.2676031
  77.6327974  75.9482607  66.0496226  78.9356108  75.5026720  65.4203308
  81.8716656  75.6879477  69.9830370  82.6477046  76.1775930  70.2554987
  81.1464790  76.1137532  70.4402240  84.3089214  76.4007097  71.0404311
  84.9033705  76.1602833  70.3297619  84.3815798  75.6814227  71.6677847
  66.5286370  90.2440708  71.3547476  66.3940838  89.4841108  70.7885474
  66.1118432  90.9681607  70.8876265  77.6645333  85.4277631  60.3624051
  78.3681183  85.6327634  60.9781707  76.9407982  85.9954393  60.6273135
  78.4943143  81.1787492  66.4826321  78.4378345  81.6356044  65.6433954
  79.0471486  80.4178177  66.3049164  82.3047949  76.9677224  67.3076441
  82.0484883  76.5673860  68.1384648  81.6800817  77.6821018  67.1826580
  86.6160287  79.7073297  69.8147732  86.0559845  79.7766487  70.5879294
  86.0103790  79.5314282  69.0947228  69.6855496  91.1410025  71.5665918
  69.5687880  92.0855457  71.4644609  68.8647942  90.8383586  71.9551718
  79.5732030  85.8660160  62.4122511  80.4077634  85.4341359  62.2299986
  79.4116373  85.6942174  63.3399406  79.2277922  82.3692274  63.7778850
  79.1726726  82.2036545  62.8367294  78.6023978  83.0768307  63.9341040
  76.5423830  84.6741185  83.1032413  77.4114989  84.8481838  82.7419048
  76.0630581  85.4935602  82.9808143  72.5374048  71.8700383  63.3564169
  72.5252718  72.8142223  63.5132440  73.4297470  71.6870528  63.0623630
  70.7110010  91.7938286  74.7821847  71.6137257  91.8261897  75.0988342
  70.4847380  90.8638737  74.7968183  72.4663612  90.5469273  71.4431925
  71.5159243  90.5471135  71.3296298  72.7696098  89.8002008  70.9267960
  88.2016305  96.3829811  72.5077688  88.8394715  96.2636559  71.8041028
  88.0837148  97.3310655  72.5665640  85.0106012  96.3357240  72.4439213
  84.6724523  96.2198304  71.5559747  85.8795780  95.9348405  72.4240219
  80.8692827  98.1892716  68.4336103  80.3057692  98.0982653  67.6652391
  80.7545222  97.3692620  68.9138596  85.4925795  97.4892091  78.4025418
  85.4814435  97.0944890  77.5305922  85.6546434  96.7558164  78.9959190
  78.4157259  99.6843908  71.2720324  79.2078551  99.3434732  70.8566623
  78.6553909  99.7938883  72.1922477  86.4492386 101.8563684  63.7450568
  85.7980366 102.4417764  63.3584582  87.2436749 102.3869879  63.8045606
  80.3748013  98.9452821  64.1437703  81.1478889  98.3981808  64.0050579
  80.7273412  99.8097070  64.3552164  82.2133056 100.2729203  77.3504602
  81.9222922 101.1774834  77.2351268  82.8490040 100.3145731  78.0648672
  83.1389263  97.6506052  73.9405962  83.7352835  97.4262074  73.2262925
  83.1964234  96.9090797  74.5431410  82.7114291  95.1045487  61.7756153
  82.9639812  94.5827008  61.0139616  81.7738850  94.9411632  61.8782836
  87.7557574  94.1081265  69.5830896  88.5420663  93.6900688  69.2321313
  88.0196278  95.0127357  69.7512544  87.9267651  99.5454116  64.2819553
  87.2913484  99.6188742  64.9940457  87.5965058 100.1347714  63.6038632
  93.1566001  94.0456498  70.4863874  93.8891173  93.4755715  70.7201704
  92.4005357  93.6578099  70.9270380  82.4310580  97.0073593  63.9780528
  82.3146838  96.3318496  64.6461612  82.5412840  96.5205967  63.1612681
  84.7742121  96.4683740  67.6827217  84.4100328  95.9414361  68.3940138
  85.6309237  96.0782209  67.5093702  90.6791421  87.7578073  74.9458483
  90.3474746  88.6273484  74.7219698  90.0837035  87.4414357  75.6252513
  84.4147608  91.4973640  62.6788565  84.5822010  92.3653876  63.0459036
  84.2244777  91.6600921  61.7549855  87.1722941  99.9590619  74.3454396
  86.8723664 100.8615657  74.2370203  86.8274000  99.6922802  75.1975549
  80.6235422  96.4104415  70.3791100  79.6985919  96.2780630  70.5868792
  80.8719836  97.1898635  70.8761043  90.5720085  92.4773159  72.0251833
  89.6636962  92.4088567  71.7310594  90.5207680  92.9545104  72.8533659
  84.3936829  93.9531297  63.6635232  84.2736454  94.3988348  64.5020712
  83.6989417  94.3016615  63.1048770  77.9844233  96.0537689  71.2134889
  78.1136615  96.3072168  72.1274301  77.3041685  96.6465397  70.8939544
  82.1543721 106.7234939  67.3125363  82.0767750 107.6742764  67.3913844
  81.5505364 106.3780811  67.9700290  84.6460950  93.8962804  79.9686730
  83.8694284  94.4556724  79.9589595  85.2851513  94.3819587  80.4901600
  92.4381731  90.6789597  73.8029707  91.7956111  90.9722130  73.1569502
  91.9336660  90.5642517  74.6082904  90.0921895  94.4252770  64.4915566
  91.0039751  94.6580157  64.3163264  89.5831542  95.0089815  63.9290645
  82.9007323  96.7048258  79.5304697  83.6422007  97.2433302  79.2539521
  82.1944308  97.3314546  79.6876249  88.3762662  98.8477398  78.1276859
  88.7846018  98.4059809  77.3831491  87.6539924  98.2730026  78.3811052
  84.7293732  93.7850005  75.5010416  85.5754928  94.2089418  75.6445065
  84.6692370  93.1283629  76.1948979  88.6991477  99.4078589  71.8829148
  88.0700339  99.5724303  71.1805216  88.3117139  99.8220198  72.6540112
  92.5780709 100.3433027  69.2373511  91.8931747 100.7231928  68.6870545
  92.6624558 100.9528353  69.9705459  87.8793178  91.4454373  77.1591589
  87.6354110  92.1996434  76.6225865  88.1553108  91.8239721  77.9938836
  89.8331641  97.9892986  75.8368855  90.0448536  98.6324746  75.1603236
  89.7861389  97.1555302  75.3690785  87.4357869  90.6010806  72.7405427
  86.5742349  90.8992060  73.0322165  87.4620304  90.8181205  71.8086460
  84.2519439  99.1452997  69.1479233  84.7157784  99.4240700  68.3583855
  83.9876237  98.2436441  68.9652323  81.1443520  98.6924478  72.0858996
  81.7144877  99.1211747  71.4476481  81.7351632  98.4107063  72.7843182
  83.1888325  95.2676149  65.9568798  83.8912368  95.7197193  66.4242724
  82.8568953  94.6259968  66.5848691  81.6368686  93.8587906  80.3320007
  81.0067347  94.5404187  80.5655404  81.5304774  93.7470987  79.3873146
  76.9313659  93.5259702  71.2585931  76.1412713  93.7817230  70.7826042
  77.4224906  94.3408040  71.3637972  90.9477468 100.8664941  74.0091212
  91.7694912 100.4645128  73.7273894  90.9439871 100.7633175  74.9607328
  78.8828404  93.8904281  68.2169408  78.0859568  94.0022975  68.7352904
  78.6553996  94.2290933  67.3510299  84.7134072 100.4148984  76.1651923
  84.7778504 100.8769392  77.0010095  84.0044996  99.7846349  76.2934233
  75.2151362  93.7790192  73.6900922  75.4659400  94.6637202  73.9558498
  75.7510910  93.5994794  72.9176014  99.0383462  97.2103690  70.3576184
  98.2847170  96.6411088  70.2020188  99.1731003  97.1766354  71.3046818
  84.4282090 102.0817092  66.0330903  84.2927764 102.9268628  66.4615751
  84.9691902 102.2836370  65.2696837  80.9149429  88.1608672  82.6945258
  80.5216375  87.6074870  83.3692903  81.7315570  88.4719250  83.0851776
  77.8811487  99.5992530  66.6058828  78.3936008 100.3935780  66.7564393
  78.5334200  98.9018820  66.5392430  79.6906372 102.7158286  68.6881581
  79.8673000 103.6376251  68.5002565  80.4863205 102.4016705  69.1175961
  83.8317390  89.5766551  80.2865515  84.5727104  90.1773704  80.2069977
  84.0635313  88.8344189  79.7283557  78.9758728  94.7622918  78.5643745
  78.8612243  93.8608175  78.8650844  78.1203246  95.0086615  78.2128561
  86.0550566 102.7040658  80.1631245  85.6114420 101.9177037  79.8452150
  86.7167780 102.8919809  79.4975136  80.8137687 104.2336460  74.6891924
  81.3645112 104.1053523  73.9168918  79.9749163 104.5331349  74.3386817
  88.1531804 102.9843458  78.1912646  88.1350279 103.8052339  77.6992916
  89.0751724 102.8597534  78.4162788  84.6104858 100.4987588  79.0336155
  85.1433195  99.7375876  78.8035463  84.0818939 100.2061240  79.7760309
  87.7774553  85.6047654  74.5629797  87.4338823  86.4949295  74.4868907
  88.1453516  85.4149311  73.6999382  75.8460404  97.9281184  67.3818399
  76.6835626  98.3378193  67.1652106  76.0238671  96.9880626  67.3518593
  87.7424836  95.5956265  63.0702232  87.2271459  96.3660869  63.3090619
  87.4702144  94.9221401  63.6935293  85.3271947  90.4405966  68.1287470
  84.4713543  90.0512816  67.9493109  85.7398899  90.5197926  67.2687256
  86.8571094  87.9752309  72.5279030  86.3535889  87.9382444  71.7146835
  87.1501700  88.8845052  72.5875687  83.1013979  88.0591039  71.5345212
  83.9666976  87.8633847  71.1751101  83.1691488  87.8301390  72.4614568
  92.7159110  98.3488620  65.0055405  91.9388553  98.0099779  64.5610567
  93.3950591  98.3541243  64.3310370  87.5311139  93.4683357  64.8962013
  87.2261275  93.7829506  65.7472156  88.4841581  93.5464777  64.9389346
  85.9757571  99.6273580  66.5454967  85.4478932  98.8926340  66.2328204
  85.4745074 100.4048257  66.2994935  90.9550417  97.8222601  71.6622013
  90.2974091  98.5121862  71.7502142  91.7590816  98.2119033  72.0056000
  80.7076298  90.2893247  68.9061578  81.2820050  90.0668428  68.1734771
  81.2947281  90.3581941  69.6590180  89.7655876  96.1766973  69.7125955
  90.2787757  96.8096965  70.2147665  90.4157100  95.5768169  69.3469315
  81.0345886  92.3197708  62.9257464  80.1983198  92.6572394  63.2466738
  80.8950655  92.1846687  61.9884601  83.0098966  87.1634495  67.6336648
  82.3563379  86.8483513  67.0093263  82.9679440  86.5410236  68.3596471
  84.1210171  97.4453791  59.5489940  83.2137233  97.2143044  59.7481089
  84.6181203  96.6491410  59.7363921  87.0278250 106.1551298  62.4686626
  86.3539949 106.4582994  63.0771584  87.4144072 106.9580378  62.1192083
  86.2436707  93.6516429  71.9584295  85.3259268  93.8731376  71.8005984
  86.6596850  93.7262739  71.0996003  87.0271754  95.0507845  67.0886976
  87.7743573  95.5629242  66.7794098  87.2963344  94.7291897  67.9491369
  85.2998404  97.5466385  64.0713930  84.3909624  97.2625418  64.1686400
  85.3293488  97.9665464  63.2117237  90.5317672 101.1572975  67.8405098
  90.0779999 100.3163885  67.8970288  89.9011639 101.7934373  68.1779878
  89.4750591  92.0864961  69.0705765  88.7373348  91.5742347  69.4016008
  89.7277365  91.6465343  68.2589042  88.9750611 102.9949472  68.7754916
  89.2673586 103.5554529  68.0567281  89.4849232 103.2878033  69.5308075
  89.5762219  84.8641213  69.6647534  89.8821096  84.0038576  69.3773449
  90.3014824  85.4558833  69.4646528  75.8686575  95.2671900  68.0529132
  75.6710975  94.6741260  67.3280199  75.3133239  94.9624110  68.7705071
  83.8483299  95.1595006  70.1723725  83.9031908  94.2068842  70.0966202
  83.0374501  95.3154445  70.6565024  84.9974492  99.0875129  61.4102009
  84.5593922  98.3710988  60.9507646  85.7384933  99.3151244  60.8487100
  81.7875658  93.7772066  67.9314104  80.9743524  94.0766236  68.3379296
  82.2834653  93.3827755  68.6488586  83.9384236 103.7729823  69.8648369
  83.8960415 103.9990669  68.9356901  84.8546935 103.5393197  70.0134170
  87.3849870  94.2413890  76.7628998  87.7399258  94.4685363  77.6223464
  88.0322001  94.5732267  76.1406253  93.1147607  97.3632326  67.4678327
  92.9765506  97.5533922  66.5399516  92.7583826  98.1251709  67.9246378
  81.2789733  91.3490421  73.5475339  81.9189113  91.2079180  72.8498302
  80.4467264  91.0624935  73.1713941  93.1416987  99.4308853  72.4789599
  93.5753493  99.3384142  73.3272653  93.8548567  99.4066354  71.8409615
  82.0550037 100.6492852  69.6610332  82.8490636 100.1543172  69.4592907
  81.3441729 100.1210715  69.2978037  86.8744882 103.0310947  74.0122699
  86.9281904 103.6001884  74.7800415  86.0059663 103.2012832  73.6476736
  78.3632801  94.7935933  65.7370084  77.4330389  94.7320389  65.9540046
  78.4590273  94.2711886  64.9406726  78.2818350  91.3190746  68.3248326
  78.5425167  92.2336080  68.2157486  79.1035522  90.8515189  68.4744939
  79.7543275  92.7328503  75.4947150  80.4266328  92.5245866  74.8459799
  78.9273061  92.5350589  75.0552383  94.0032536  99.4732554  75.0122484
  94.1968426 100.3778364  75.2581759  93.9033154  99.0139973  75.8461069
  85.6568847  89.3590444  77.5112811  85.0096762  90.0580394  77.4177288
  86.4269862  89.7926588  77.8789060  89.0647645  99.6239297  80.5863365
  88.9133151  99.3949848  79.6693448  89.0552324 100.5809898  80.5994710
  85.8332981  97.1971209  75.5709631  86.7625041  97.3482369  75.3978598
  85.4124011  97.2855230  74.7158278  84.6321313 101.2221874  73.3408169
  84.4932399 100.8540658  74.2134107  83.8435909 101.7369513  73.1692127
  85.2269465 106.3230970  64.6833705  85.4021221 105.8519013  65.4979328
  84.5402253 106.9496736  64.9114966  86.1826528 100.6003476  70.7297007
  85.8476361 100.5604246  71.6254656  85.6830474  99.9348192  70.2567417
  80.1570772  96.0071106  76.2549588  80.0190570  95.2751345  76.8561127
  81.0675696  95.9180007  75.9733775  89.1185720  97.9459511  61.0034066
  88.5014891  97.2206339  60.9067119  88.6502208  98.7068871  60.6601140
  82.7853073  95.7191066  75.7433267  83.4952691  95.0784258  75.7019886
  82.7422381  95.9703961  76.6659448  90.7739852 102.6558419  78.6639847
  90.7152398 101.9717639  77.9970430  91.1759370 103.3977409  78.2120473
  81.4982007  92.7056284  77.5628907  80.9619364  92.2547022  78.2150503
  80.9098715  92.8402192  76.8199371  79.7930550 109.4720333  71.4573565
  80.0327149 110.1038857  72.1352584  78.9499747 109.1208373  71.7438925
  80.9084266  92.1644935  60.1255370  80.0313732  92.0433736  59.7617617
  81.3842019  91.3731013  59.8734259  90.7757259 100.6198003  76.8953826
  89.8884038 100.2823925  77.0180225  91.3455810  99.8881034  77.1322592
  72.4286406  96.9522095  70.2196878  73.1157446  96.6383825  69.6317893
  72.2734535  97.8563459  69.9464129  77.2321128  91.8412291  74.6481901
  77.1479317  91.2337961  73.9132311  76.4103834  92.3321310  74.6491398
  84.3058412 105.2799455  73.8615069  84.2328584 106.0854427  74.3734374
  83.8635805 105.4791421  73.0363091  84.0948192 104.5171225  67.3717891
  83.3115714 105.0592906  67.4656115  84.7940937 105.0345205  67.7712132
  87.4044842  90.3265855  70.0152096  87.9013542  89.5735817  69.6953167
  86.6331823  90.3630171  69.4495306  95.2574599  96.0306220  71.6570388
  95.2464476  96.9130936  71.2864321  94.3891979  95.6777771  71.4624925
  86.7657096 105.1786289  76.0173228  87.4785068 105.8133754  75.9449130
  86.2747124 105.2750155  75.2013230  88.4874623  99.0837542  67.5890520
  87.5530901  99.2039005  67.4195224  88.6651291  98.1810009  67.3250530
  83.9879811  92.4683238  69.7423781  83.6177598  91.9154278  70.4304687
  84.4838903  91.8641371  69.1898781  91.8747174  94.9254861  68.1240554
  92.3407626  95.7582853  68.0500857  92.3254675  94.4599843  68.8285812
  81.8169009 102.9280733  76.8378799  82.5178469 103.5617216  76.9908193
  81.3464124 103.2695464  76.0774438  89.9423405 101.2698683  65.1226706
  90.2183249 101.1555277  66.0320580  89.0727904 100.8716167  65.0838879
  89.8463837  87.2935448  72.1631455  88.9326917  87.5239675  72.3313662
  90.2756938  87.3773892  73.0145488  89.6170295  95.4825340  74.6631349
  88.9641745  95.7301248  74.0083802  89.9950675  94.6689478  74.3293827
  86.5777469 105.5185033  68.7659520  86.7599864 104.7006689  69.2287272
  87.4010455 105.7352726  68.3284410  86.9119635 104.4453219  66.0274568
  87.4407401 103.9345673  65.4144730  87.1747854 104.1295749  66.8920101
  85.6657868  96.2245151  81.1497386  84.9898505  96.1239281  81.8199762
  86.4885502  96.0684365  81.6133384  77.4136727 102.4617088  73.7709902
  77.9990164 101.7160776  73.9037806  77.2161566 102.7721045  74.6546565
  80.2675383 105.4968335  68.7872344  79.5985758 105.9814463  68.3036384
  80.1288252 105.7437556  69.7015722  72.0054382  95.0322688  72.4914345
  72.0438482  94.4986279  73.2851463  71.4994675  94.5057894  71.8725322
  84.4080651 107.5312079  75.3855002  84.9598959 107.6943700  76.1504088
  84.7486845 108.1216517  74.7135027  79.3845144  89.8787229  75.9876887
  79.4486471  90.7402060  75.5754285  79.3212265  89.2661230  75.2549246
  78.8597417  91.9510361  79.6349921  79.4869456  91.5687438  80.2487446
  78.0025336  91.7324563  80.0005614  89.2591525 102.3573336  81.2403657
  89.8031429 102.9703295  80.7458612  88.6778370 102.9152915  81.7570670
  75.6362960  93.7586790  65.5668276  75.9316401  92.8497469  65.5135330
  74.7350995  93.7374530  65.2449278  87.5449038 105.4794054  72.3718684
  87.4200178 104.6783794  71.8629630  88.2028130 105.9740248  71.8832654
  79.1657207  91.8342787  71.5495825  78.4443792  92.4478755  71.4103298
  79.9550462  92.3700552  71.4712471  89.6083947 103.2803074  73.9998235
  88.6614282 103.1608426  73.9276561  89.9566720 102.3925572  74.0824496
  81.9683520  89.1697213  77.8236476  82.4917922  89.4159510  78.5862786
  81.7495853  90.0017248  77.4039614  77.3650801  91.4400888  65.6907601
  77.0363507  90.5598267  65.5082707  77.7190172  91.3848557  66.5783990
  86.6130380 103.0755791  70.2002587  86.4655343 102.1472498  70.3810157
  87.4383874 103.0975881  69.7159662  80.4792624  91.7273858  66.0583079
  80.8188697  92.2559779  65.3361687  80.9264745  92.0654264  66.8341645
  90.2164502 103.8984349  71.2867460  91.1411049 103.6927211  71.1491911
  90.0479805 103.6500751  72.1956801  83.1736065  90.1110908  75.5086147
  82.8332886  89.3118722  75.9106827  82.4675071  90.4112619  74.9362980
  83.8252537  87.1960221  73.9613470  84.6478606  86.7220699  73.8392360
  84.0690601  87.9750705  74.4612156  82.4660772  90.2248479  64.2576372
  83.1869134  90.6029732  63.7540089  81.8426076  90.9437356  64.3611350
  86.6091894  90.9293628  65.1934704  86.8255509  91.8118266  64.8923532
  86.1285962  90.5379842  64.4640346  81.3491116  93.8879342  71.7705449
  81.2035697  94.2019645  72.6629730  80.8716319  94.5064242  71.2176347
  83.2087499  90.8781889  71.8186338  83.1949067  89.9822983  71.4818636
  83.9259927  90.8852553  72.4524624  85.0613629  91.3119230  73.8639466
  84.8031407  92.2336300  73.8623796  84.5298670  90.9149664  74.5539930
  90.0059818 104.4170017  66.6429551  90.1796696 103.8516439  65.8903403
  90.4988709 105.2170912  66.4609041  75.8236778  96.4284686  74.7093110
  75.2790246  97.2044494  74.8413384  76.7016128  96.7755490  74.5512231
  82.6124395  89.7596270  67.0873908  82.7340306  88.8312916  67.2864796
  82.3226437  89.7734956  66.1752224  85.4815585  87.4451180  70.2240628
  85.5037282  87.5090513  69.2692608  85.8983644  86.6055689  70.4181134
  95.8599209  97.1806440  68.2619851  96.3030355  96.4313765  67.8638974
  94.9825720  97.1716576  67.8793583  90.9934991 103.7336781  63.7426449
  91.6885895 104.3543474  63.9613764  91.3358141 102.8832132  64.0178827
  76.6102800  95.5554582  77.6023267  75.8684536  95.7037218  78.1887897
  76.2895544  95.8162848  76.7390016  92.8926414 101.1836487  65.2713780
  93.4177738 101.5223760  64.5463100  92.8048766 100.2483502  65.0876915
  84.5546462 105.0970560  77.4003657  84.8633589 104.8519707  78.2726356
  85.3521944 105.3017199  76.9122527  84.5767075 107.2508470  69.6309033
  84.1372065 106.7584849  70.3241890  85.3275191 106.7081438  69.3901108
  77.0559413 103.4420011  69.6333661  77.8817433 103.1423783  69.2532305
  76.7053465 102.6727633  70.0823450  82.0240947 102.7946479  71.7031335
  81.4020956 102.1317184  71.4033563  82.6945814 102.8207611  71.0204983
  75.2568019 101.3606337  70.5922595  74.4199927 100.9328512  70.4106596
  75.2291664 101.5538781  71.5293386  82.0965474  91.2728267  81.2963841
  82.1453630  92.1490390  80.9141611  82.6387988  90.7305660  80.7235484
  92.5820320 101.8169390  80.5764978  91.7915864 101.7993529  80.0369477
  92.3453674 102.3557684  81.3314015  92.7018195  98.6661857  77.8897707
  92.7516200  98.5011864  78.8313229  92.5932118  97.7989116  77.4995587
  81.5854454 101.3450402  65.1789795  81.7342574 102.0285867  64.5256468
  82.3920897 101.3255493  65.6939251  89.9921957  94.6492785  79.2057013
  90.8931820  94.5099250  78.9141011  90.0669932  94.8147240  80.1455191
  84.3264763  92.0259640  78.0510200  83.4568072  92.3193206  77.7792788
  84.5624243  92.6100085  78.7717463  94.2036392 101.0858798  78.1339728
  93.9121200 101.4488779  78.9703189  93.5908523 100.3725807  77.9553060
  95.4032074  98.6511678  70.6542298  96.2378965  99.0901482  70.8179859
  95.5391203  98.1750331  69.8350544  92.4523580  96.2091413  76.6019786
  92.9277702  96.4019059  75.7938637  91.5289145  96.2650599  76.3563170
  79.3407087  97.3715580  66.1850864  79.0953128  96.4677910  66.3831074
  79.5103001  97.3732731  65.2430342  87.0303796  88.2439256  75.5675620
  87.5485740  88.9800283  75.2422109  86.6758929  88.5503250  76.4022379
  78.6102734  93.1043938  63.6837026  77.9171979  93.1788293  63.0277062
  78.3654486  92.3404281  64.2058543  87.2816391  84.6639539  71.0876517
  87.5618144  83.9962728  71.7136943  88.0666998  84.8568635  70.5751180
  85.0849859 103.8398533  62.6501543  84.5123826 104.4588720  62.1972015
  85.6582653 104.3897895  63.1841465  91.1525249  93.0857173  74.8348092
  92.1042672  93.1855271  74.8560316  90.9828699  92.2935442  75.3446176
  89.1739628  90.1712756  75.0207493  88.5789561  90.4517769  74.3253981
  88.8889325  90.6606657  75.7924234  88.3047119 104.1235683  63.7810125
  89.2377792 104.0581245  63.9843001  88.2170332 104.9591950  63.3224658
  90.9335136 103.4401553  60.7414073  90.8548767 103.1061417  61.6349831
  91.7544802 103.9323321  60.7405545  93.6313327  96.3063293  73.9490391
  93.5989647  95.3679293  74.1350075  94.2413950  96.3847329  73.2156216
  85.4696658  95.1759346  59.9917595  86.4155762  95.0465554  60.0606013
  85.0910903  94.4374008  60.4687024  93.7807815  93.0974336  73.9948675
  93.2646864  92.3132793  73.8078603  94.6647764  92.7693053  74.1595194
  91.4418542  86.8415352  69.9544487  91.2443363  86.5330440  70.8387819
  92.0518248  87.5676991  70.0842417  99.4489877  97.3679300  73.0896428
 100.1793265  97.1064588  73.6504131  98.8396822  96.6308021  73.1298496
  97.5305174  95.5087162  73.6870879  96.8038337  95.3743127  73.0787371
  97.1152461  95.8163991  74.4927597  85.3535350  99.2277092  81.4518252
  86.2738360  99.4055691  81.6458299  85.3184933  98.2833137  81.2997952
  83.6539575  93.1009322  59.9272481  82.7471030  92.8042435  60.0035194
  83.9315556  92.8039140  59.0606767  74.5717515  94.4215685  70.3771527
  74.2520299  93.5680994  70.0845901  74.0250943  94.6364264  71.1329494
  78.3497423  97.1378126  74.0941034  78.5683432  98.0695234  74.1129067
  78.7623197  96.7786101  74.8795837  85.2701640  87.6446212  66.0816722
  84.4602369  87.2993297  66.4571968  85.9586057  87.3353755  66.6704333
  87.1992189  86.7224259  67.7041019  87.7523227  87.1419712  68.3631042
  87.4362275  85.7960007  67.7463975  83.2225288  92.7111332  83.4843782
  83.1222015  93.6605689  83.4155874  83.0046830  92.3829571  82.6119853
  82.4238359  89.9596257  60.0684460  83.2857523  90.2851156  60.3280277
  82.6088704  89.1727753  59.5557526  74.4405775  98.0418597  72.3464649
  73.7469247  97.6272550  71.8334603  75.1878766  98.0839133  71.7498067
  90.5770996  88.8324784  67.2119683  89.9969665  89.4909588  66.8297735
  90.3106929  88.0102128  66.8007100  89.0274562  88.2329841  69.4141003
  89.5274341  88.3446376  68.6055322  89.6710170  87.9290894  70.0541812
  83.0856558  96.1408471  82.3008844  82.6023640  96.9408831  82.5072733
  83.1717497  96.1516416  81.3476288  76.3542518  97.9736851  70.2230663
  76.3313206  98.0724538  69.2712547  76.6643154  98.8202002  70.5447830
  79.0129896 100.0313006  74.3377278  79.9673149  99.9996948  74.2707209
  78.8142419  99.5703629  75.1527504  79.6029278  98.6014122  76.9048076
  80.4222167  99.0958200  76.9282913  79.8766085  97.6846090  76.8765643
  89.3595874  90.9924874  66.2676031  88.4721729  91.2774525  66.0496226
  89.7749863  90.8318637  65.4203308  92.7110410  91.0171395  69.9830370
  93.4870800  91.5067848  70.2554987  91.9858544  91.4429449  70.4402240
  95.1482969  91.7299014  71.0404311  95.7427459  91.4894750  70.3297619
  95.2209552  91.0106145  71.6677847  77.3680124 105.5732625  71.3547476
  77.2334592 104.8133026  70.7885474  76.9512187 106.2973525  70.8876265
  88.5039087 100.7569549  60.3624051  89.2074937 100.9619551  60.9781707
  87.7801736 101.3246311  60.6273135  89.3336898  96.5079410  66.4826321
  89.2772099  96.9647961  65.6433954  89.8865240  95.7470095  66.3049164
  93.1441704  92.2969142  67.3076441  92.8878638  91.8965778  68.1384648
  92.5194572  93.0112936  67.1826580  97.4554041  95.0365215  69.8147732
  96.8953599  95.1058404  70.5879294  96.8497545  94.8606200  69.0947228
  80.5249250 106.4701942  71.5665918  80.4081634 107.4147375  71.4644609
  79.7041696 106.1675504  71.9551718  90.4125785 101.1952078  62.4122511
  91.2471389 100.7633276  62.2299986  90.2510128 101.0234092  63.3399406
  90.0671677  97.6984191  63.7778850  90.0120481  97.5328463  62.8367294
  89.4417732  98.4060224  63.9341040  74.8564192  92.9352256  77.6040273
  75.5023056  92.4251210  78.0927498  74.6481343  93.6720937  78.1783698
  87.3817584 100.0033103  83.1032413  88.2508744 100.1773755  82.7419048
  86.9024336 100.8227520  82.9808143  83.3767802  87.1992300  63.3564169
  83.3646472  88.1434140  63.5132440  84.2691224  87.0162446  63.0623630
  81.5503764 107.1230204  74.7821847  82.4531011 107.1553814  75.0988342
  81.3241134 106.1930655  74.7968183  83.3057366 105.8761191  71.4431925
  82.3552997 105.8763052  71.3296298  83.6089852 105.1293925  70.9267960
  87.1919922  83.7935077  67.6110106  86.4252318  83.2393564  67.7566788
  87.6030627  83.8656946  68.4724257  79.1961683  90.0819873  81.7015287
  80.0593144  89.7256678  81.9118611  78.6227094  89.7433768  82.3890691
  95.8499766 111.6649157  72.4439213  95.5118278 111.5490222  71.5559747
  96.7189534 111.2640322  72.4240219  91.7086582 113.5184634  68.4336103
  91.1451447 113.4274571  67.6652391  91.5938977 112.6984538  68.9138596
  96.3319549 112.8184009  78.4025418  96.3208190 112.4236807  77.5305922
  96.4940189 112.0850082  78.9959190  89.2551014 115.0135825  71.2720324
  90.0472306 114.6726650  70.8566623  89.4947664 115.1230800  72.1922477
  91.2141768 114.2744738  64.1437703  91.9872644 113.7273726  64.0050579
  91.5667167 115.1388988  64.3552164  93.9783017 112.9797969  73.9405962
  94.5746589 112.7553992  73.2262925  94.0357989 112.2382715  74.5431410
  93.5508046 110.4337405  61.7756153  93.8033566 109.9118926  61.0139616
  92.6132605 110.2703550  61.8782836  98.5951328 109.4373183  69.5830896
  99.3814418 109.0192606  69.2321313  98.8590033 110.3419275  69.7512544
  93.2704334 112.3365511  63.9780528  93.1540592 111.6610414  64.6461612
  93.3806594 111.8497884  63.1612681  95.6135875 111.7975658  67.6827217
  95.2494082 111.2706279  68.3940138  96.4702991 111.4074127  67.5093702
 101.5185176 103.0869990  74.9458483 101.1868501 103.9565401  74.7219698
 100.9230789 102.7706274  75.6252513  95.2541362 106.8265557  62.6788565
  95.4215765 107.6945794  63.0459036  95.0638531 106.9892839  61.7549855
  91.4629177 111.7396333  70.3791100  90.5379673 111.6072547  70.5868792
  91.7113590 112.5190552  70.8761043 101.4113839 107.8065076  72.0251833
 100.5030716 107.7380485  71.7310594 101.3601435 108.2837021  72.8533659
  95.2330583 109.2823215  63.6635232  95.1130208 109.7280266  64.5020712
  94.5383171 109.6308533  63.1048770  88.8237988 111.3829607  71.2134889
  88.9530369 111.6364086  72.1274301  88.1435439 111.9757315  70.8939544
  95.4854705 109.2254722  79.9686730  94.7088039 109.7848642  79.9589595
  96.1245268 109.7111505  80.4901600 103.2775486 106.0081515  73.8029707
 102.6349866 106.3014048  73.1569502 102.7730414 105.8934435  74.6082904
  93.7401077 112.0340175  79.5304697  94.4815762 112.5725219  79.2539521
  93.0338063 112.6606464  79.6876249  95.5687487 109.1141923  75.5010416
  96.4148682 109.5381336  75.6445065  95.5086125 108.4575547  76.1948979
  98.7186932 106.7746291  77.1591589  98.4747864 107.5288351  76.6225865
  98.9946863 107.1531639  77.9938836  98.2751624 105.9302724  72.7405427
  97.4136103 106.2283978  73.0322165  98.3014059 106.1473123  71.8086460
  91.9837274 114.0216396  72.0858996  92.5538632 114.4503664  71.4476481
  92.5745386 113.7398981  72.7843182  94.0282079 110.5968067  65.9568798
  94.7306123 111.0489111  66.4242724  93.6962708 109.9551886  66.5848691
  92.4762441 109.1879824  80.3320007  91.8461102 109.8696104  80.5655404
  92.3698529 109.0762905  79.3873146  87.7707413 108.8551620  71.2585931
  86.9806467 109.1109148  70.7826042  88.2618661 109.6699957  71.3637972
  89.7222159 109.2196199  68.2169408  88.9253322 109.3314893  68.7352904
  89.4947751 109.5582851  67.3510299  86.0545116 109.1082110  73.6900922
  86.3053155 109.9929120  73.9558498  86.5904665 108.9286712  72.9176014
  91.7543184 103.4900589  82.6945258  91.3610129 102.9366788  83.3692903
  92.5709324 103.8011168  83.0851776  88.7205241 114.9284448  66.6058828
  89.2329762 115.7227698  66.7564393  89.3727954 114.2310738  66.5392430
  94.6711145 104.9058468  80.2865515  95.4120858 105.5065622  80.2069977
  94.9029068 104.1636106  79.7283557  89.8152483 110.0914836  78.5643745
  89.7005998 109.1900093  78.8650844  88.9597000 110.3378533  78.2128561
  98.6168308 100.9339571  74.5629797  98.2732577 101.8241213  74.4868907
  98.9847270 100.7441229  73.6999382  86.6854158 113.2573102  67.3818399
  87.5229380 113.6670110  67.1652106  86.8632426 112.3172544  67.3518593
  96.1665701 105.7697883  68.1287470  95.3107298 105.3804734  67.9493109
  96.5792653 105.8489844  67.2687256  97.6964848 103.3044227  72.5279030
  97.1929644 103.2674362  71.7146835  97.9895455 104.2136969  72.5875687
  93.9407734 103.3882956  71.5345212  94.8060731 103.1925765  71.1751101
  94.0085243 103.1593308  72.4614568  98.3704894 108.7975275  64.8962013
  98.0655029 109.1121424  65.7472156  99.3235336 108.8756695  64.9389346
  91.5470053 105.6185164  68.9061578  92.1213805 105.3960346  68.1734771
  92.1341035 105.6873859  69.6590180  91.8739640 107.6489625  62.9257464
  91.0376952 107.9864312  63.2466738  91.7344410 107.5138605  61.9884601
  93.8492721 102.4926413  67.6336648  93.1957133 102.1775430  67.0093263
  93.8073195 101.8702154  68.3596471  94.9603926 112.7745708  59.5489940
  94.0530987 112.5434962  59.7481089  95.4574958 111.9783327  59.7363921
  97.0830461 108.9808347  71.9584295  96.1653022 109.2023294  71.8005984
  97.4990605 109.0554657  71.0996003  97.8665509 110.3799762  67.0886976
  98.6137328 110.8921160  66.7794098  98.1357098 110.0583815  67.9491369
 100.3144346 107.4156879  69.0705765  99.5767103 106.9034265  69.4016008
 100.5671119 106.9757260  68.2589042 100.4155973 100.1933131  69.6647534
 100.7214850  99.3330494  69.3773449 101.1408578 100.7850751  69.4646528
  86.7080329 110.5963817  68.0529132  86.5104729 110.0033178  67.3280199
  86.1526993 110.2916027  68.7705071  94.6877053 110.4886924  70.1723725
  94.7425663 109.5360760  70.0966202  93.8768255 110.6446363  70.6565024
  92.6269413 109.1063983  67.9314104  91.8137278 109.4058154  68.3379296
  93.1228407 108.7119672  68.6488586  98.2243625 109.5705808  76.7628998
  98.5793012 109.7977281  77.6223464  98.8715756 109.9024185  76.1406253
  92.1183488 106.6782339  73.5475339  92.7582867 106.5371098  72.8498302
  91.2861018 106.3916852  73.1713941  89.2026555 110.1227851  65.7370084
  88.2724143 110.0612307  65.9540046  89.2984027 109.6003804  64.9406726
  89.1212104 106.6482664  68.3248326  89.3818921 107.5627997  68.2157486
  89.9429276 106.1807107  68.4744939  90.5937029 108.0620421  75.4947150
  91.2660083 107.8537783  74.8459799  89.7666816 107.8642507  75.0552383
  96.4962601 104.6882362  77.5112811  95.8490517 105.3872312  77.4177288
  97.2663617 105.1218506  77.8789060  90.9964527 111.3363024  76.2549588
  90.8584325 110.6043263  76.8561127  91.9069450 111.2471924  75.9733775
  93.6246827 111.0482983  75.7433267  94.3346446 110.4076176  75.7019886
  93.5816136 111.2995878  76.6659448  92.3375761 108.0348201  77.5628907
  91.8013118 107.5838940  78.2150503  91.7492470 108.1694110  76.8199371
  91.7478020 107.4936853  60.1255370  90.8707487 107.3725653  59.7617617
  92.2235773 106.7022931  59.8734259  83.2680160 112.2814012  70.2196878
  83.9551200 111.9675742  69.6317893  83.1128289 113.1855377  69.9464129
  88.0714883 107.1704209  74.6481901  87.9873071 106.5629879  73.9132311
  87.2497589 107.6613227  74.6491398  98.2438596 105.6557773  70.0152096
  98.7407296 104.9027735  69.6953167  97.4725578 105.6922089  69.4495306
  94.8273565 107.7975156  69.7423781  94.4571353 107.2446196  70.4304687
  95.3232658 107.1933289  69.1898781 100.6857591 102.6227366  72.1631455
  99.7720671 102.8531593  72.3313662 101.1150693 102.7065810  73.0145488
  96.5051623 111.5537069  81.1497386  95.8292260 111.4531198  81.8199762
  97.3279257 111.3976283  81.6133384  88.2530482 117.7909006  73.7709902
  88.8383919 117.0452693  73.9037806  88.0555320 118.1012962  74.6546565
  82.8448137 110.3614606  72.4914345  82.8832236 109.8278196  73.2851463
  82.3388429 109.8349811  71.8725322  90.2238899 105.2079146  75.9876887
  90.2880225 106.0693977  75.5754285  90.1606019 104.5953148  75.2549246
  89.6991171 107.2802279  79.6349921  90.3263210 106.8979356  80.2487446
  88.8419090 107.0616481  80.0005614  86.4756714 109.0878708  65.5668276
  86.7710155 108.1789386  65.5135330  85.5744750 109.0666447  65.2449278
  90.0050961 107.1634705  71.5495825  89.2837547 107.7770672  71.4103298
  90.7944217 107.6992469  71.4712471  92.8077275 104.4989131  77.8236476
  93.3311676 104.7451428  78.5862786  92.5889608 105.3309166  77.4039614
  88.2044556 106.7692806  65.6907601  87.8757262 105.8890185  65.5082707
  88.5583926 106.7140474  66.5783990  91.3186379 107.0565775  66.0583079
  91.6582451 107.5851697  65.3361687  91.7658499 107.3946182  66.8341645
  94.0129820 105.4402826  75.5086147  93.6726640 104.6410639  75.9106827
  93.3068826 105.7404537  74.9362980  94.6646292 102.5252139  73.9613470
  95.4872361 102.0512617  73.8392360  94.9084355 103.3042622  74.4612156
  93.3054526 105.5540397  64.2576372  94.0262889 105.9321650  63.7540089
  92.6819830 106.2729274  64.3611350  97.4485649 106.2585546  65.1934704
  97.6649263 107.1410184  64.8923532  96.9679716 105.8671759  64.4640346
  92.1884870 109.2171259  71.7705449  92.0429451 109.5311562  72.6629730
  91.7110074 109.8356160  71.2176347  94.0481253 106.2073807  71.8186338
  94.0342822 105.3114900  71.4818636  94.7653681 106.2144471  72.4524624
  95.9007384 106.6411147  73.8639466  95.6425162 107.5628218  73.8623796
  95.3692424 106.2441582  74.5539930  86.6630532 111.7576604  74.7093110
  86.1184001 112.5336412  74.8413384  87.5409882 112.1047408  74.5512231
  93.4518149 105.0888187  67.0873908  93.5734060 104.1604834  67.2864796
  93.1620191 105.1026873  66.1752224  96.3209339 102.7743098  70.2240628
  96.3431036 102.8382431  69.2692608  96.7377399 101.9347607  70.4181134
  87.4496554 110.8846500  77.6023267  86.7078290 111.0329135  78.1887897
  87.1289299 111.1454765  76.7390016  86.0961773 116.6898255  70.5922595
  85.2593681 116.2620429  70.4106596  86.0685418 116.8830698  71.5293386
  92.9359229 106.6020185  81.2963841  92.9847384 107.4782308  80.9141611
  93.4781743 106.0597578  80.7235484  95.1658517 107.3551557  78.0510200
  94.2961826 107.6485123  77.7792788  95.4017997 107.9392002  78.7717463
  90.1800841 112.7007498  66.1850864  89.9346883 111.7969828  66.3831074
  90.3496756 112.7024648  65.2430342  97.8697551 103.5731174  75.5675620
  98.3879495 104.3092201  75.2422109  97.5152684 103.8795167  76.4022379
  89.4496489 108.4335855  63.6837026  88.7565734 108.5080210  63.0277062
  89.2048240 107.6696199  64.2058543  98.1210145  99.9931457  71.0876517
  98.4011899  99.3254646  71.7136943  98.9060752 100.1860552  70.5751180
 100.0133383 105.5004674  75.0207493  99.4183315 105.7809687  74.3253981
  99.7283080 105.9898575  75.7924234  96.3090412 110.5051263  59.9917595
  97.2549517 110.3757471  60.0606013  95.9304657 109.7665925  60.4687024
 102.2812297 102.1707269  69.9544487 102.0837118 101.8622358  70.8387819
 102.8912002 102.8968908  70.0842417  94.4933329 108.4301240  59.9272481
  93.5864785 108.1334352  60.0035194  94.7709310 108.1331058  59.0606767
  85.4111270 109.7507603  70.3771527  85.0914054 108.8972911  70.0845901
  84.8644698 109.9656181  71.1329494  89.1891177 112.4670044  74.0941034
  89.4077187 113.3987152  74.1129067  89.6016951 112.1078019  74.8795837
  96.1095395 102.9738129  66.0816722  95.2996123 102.6285214  66.4571968
  96.7979812 102.6645673  66.6704333  98.0385943 102.0516176  67.7041019
  98.5916982 102.4711630  68.3631042  98.2756030 101.1251924  67.7463975
  94.0619042 108.0403250  83.4843782  93.9615769 108.9897607  83.4155874
  93.8440585 107.7121489  82.6119853  93.2632114 105.2888175  60.0684460
  94.1251278 105.6143073  60.3280277  93.4482458 104.5019671  59.5557526
  85.2799530 113.3710515  72.3464649  84.5863001 112.9564467  71.8334603
  86.0272521 113.4131051  71.7498067 101.4164750 104.1616701  67.2119683
 100.8363419 104.8201505  66.8297735 101.1500683 103.3394046  66.8007100
  99.8668317 103.5621759  69.4141003 100.3668095 103.6738294  68.6055322
 100.5103925 103.2582812  70.0541812  93.9250313 111.4700389  82.3008844
  93.4417394 112.2700749  82.5072733  94.0111252 111.4808334  81.3476288
  87.1936272 113.3028768  70.2230663  87.1706960 113.4016456  69.2712547
  87.5036909 114.1493919  70.5447830  89.8523650 115.3604923  74.3377278
  90.8066904 115.3288866  74.2707209  89.6536174 114.8995547  75.1527504
  90.4423032 113.9306039  76.9048076  91.2615921 114.4250118  76.9282913
  90.7159840 113.0138008  76.8765643 100.1989628 106.3216792  66.2676031
  99.3115483 106.6066442  66.0496226 100.6143617 106.1610555  65.4203308
 103.5504165 106.3463313  69.9830370 104.3264555 106.8359765  70.2554987
 102.8252299 106.7721367  70.4402240  85.6957946 108.2644173  77.6040273
  86.3416810 107.7543127  78.0927498  85.4875098 109.0012855  78.1783698
  94.2161557 102.5284218  63.3564169  94.2040227 103.4726058  63.5132440
  95.1084979 102.3454363  63.0623630  98.0313676  99.1226995  67.6110106
  97.2646072  98.5685481  67.7566788  98.4424381  99.1948863  68.4724257
  90.0355437 105.4111790  81.7015287  90.8986899 105.0548595  81.9118611
  89.4620848 105.0725685  82.3890691  34.0047534  -3.2567654  59.2322994
  34.6425944  -3.3760907  58.5286335  33.8868377  -2.3086810  59.2910947
  30.8137240  -3.3040226  59.1684519  30.4755752  -3.4199162  58.2805054
  31.6827009  -3.7049061  59.1485525  31.2957023  -2.1505375  65.1270725
  31.2845664  -2.5452576  64.2551228  31.4577663  -2.8839302  65.7204496
  32.2523615   2.2166218  50.4695875  31.6011595   2.8020298  50.0829889
  33.0467978   2.7472413  50.5290912  26.1779242  -0.6944645  50.8683009
  26.9510118  -1.2415658  50.7295885  26.5304641   0.1699604  51.0797471
  28.0164285   0.6331737  64.0749909  27.7254151   1.5377368  63.9596575
  28.6521269   0.6748265  64.7893978  28.9420491  -1.9891414  60.6651268
  29.5384064  -2.2135392  59.9508231  28.9995463  -2.7306669  61.2676716
  33.5588803  -5.5316201  56.3076203  34.3451892  -5.9496777  55.9566620
  33.8227507  -4.6270108  56.4757851  33.7298880  -0.0943350  51.0064859
  33.0944713  -0.0208724  51.7185764  33.3996286   0.4950249  50.3283939
  38.9597230  -5.5940967  57.2109181  39.6922402  -6.1641751  57.4447010
  38.2036585  -5.9819367  57.6515687  30.5773349  -3.1713726  54.4072523
  30.2131557  -3.6983105  55.1185445  31.4340465  -3.5615257  54.2339009
  32.9754170   0.3193153  61.0699702  32.6754893   1.2218192  60.9615510
  32.6305229   0.0525336  61.9220855  36.3751313  -7.1624307  58.7497140
  35.4668191  -7.2308899  58.4555901  36.3238909  -6.6852362  59.5778965
  27.9574949   7.0837473  54.0370670  27.8798979   8.0345298  54.1159151
  27.3536593   6.7383346  54.6945596  38.2412960  -8.9607869  60.5275014
  37.5987340  -8.6675335  59.8814808  37.7367888  -9.0754948  61.3328210
  35.8953124  -5.2144695  51.2160873  36.8070980  -4.9817309  51.0408570
  35.3862771  -4.6307651  50.6535951  34.1793891  -0.7920068  64.8522165
  34.5877247  -1.2337657  64.1076798  33.4571153  -1.3667440  65.1056358
  34.5022706  -0.2318877  58.6074454  33.8731568  -0.0673163  57.9050522
  34.1148368   0.1822733  59.3785418  38.3811938   0.7035561  55.9618818
  37.6962976   1.0834462  55.4115851  38.4655787   1.3130888  56.6950766
  35.6362869  -1.6504480  62.5614162  35.8479765  -1.0072720  61.8848543
  35.5892618  -2.4842164  62.0936092  30.0550668  -0.4944469  55.8724539
  30.5189013  -0.2156766  55.0829162  29.7907466  -1.3961024  55.6897630
  26.9474749  -0.9472987  58.8104303  27.5176106  -0.5185719  58.1721787
  27.5382861  -1.2290403  59.5088488  36.7508697   1.2267475  60.7336519
  37.5726141   0.8247663  60.4519201  36.7471100   1.1235709  61.6852635
  30.5165301   0.7751519  62.8897229  30.5809733   1.2371926  63.7255401
  29.8076225   0.1448884  63.0179539  44.8414690  -2.4293776  57.0821490
  44.0878399  -2.9986378  56.9265495  44.9762232  -2.4631112  58.0292125
  30.2313318   2.4419626  52.7576210  30.0958993   3.2871162  53.1861058
  30.7723131   2.6438904  51.9942144  25.4937600   3.0760820  55.4126888
  25.6704229   3.9978785  55.2247872  26.2894434   2.7619240  55.8421268
  31.8581795   3.0643193  66.8876552  31.4145649   2.2779571  66.5697456
  32.5199008   3.2522343  66.2220443  26.6168916   4.5938994  61.4137230
  27.1676341   4.4656058  60.6414224  25.7780392   4.8933883  61.0632123
  33.9563033   3.3445993  64.9157953  33.9381508   4.1654874  64.4238222
  34.8782953   3.2200068  65.1408094  30.4136087   0.8590122  65.7581461
  30.9464424   0.0978410  65.5280769  29.8850168   0.5663774  66.5005616
  33.5456065  -4.0441201  49.7947538  33.0302688  -3.2736596  50.0335926
  33.2733373  -4.7176065  50.4180600  38.5190339  -1.2908846  51.7300712
  37.7419782  -1.6297687  51.2855874  39.1981820  -1.2856223  51.0555677
  31.7788800  -0.0123886  53.2700274  31.2510161  -0.7471126  52.9573511
  31.2776302   0.7650791  53.0240242  36.7581646  -1.8174865  58.3867320
  36.1005320  -1.1275604  58.4747448  37.5622045  -1.4278433  58.7301306
  35.5687105  -3.4630492  56.4371262  36.0818986  -2.8300501  56.9392971
  36.2188328  -4.0629297  56.0714622  29.9241400  -2.1943675  46.2735247
  29.0168462  -2.4254422  46.4726396  30.4212432  -2.9906056  46.4609228
  32.8309479   6.5153832  49.1931933  32.1571178   6.8185529  49.8016891
  33.2175301   7.3182912  48.8437390  32.8302983  -4.5889621  53.8132282
  33.5774802  -4.0768224  53.5039404  33.0994573  -4.9105568  54.6736676
  31.1029633  -2.0931080  50.7959237  30.1940853  -2.3772048  50.8931706
  31.1324717  -1.6732002  49.9362543  36.3348901   1.5175509  54.5650404
  35.8811228   0.6766419  54.6215595  35.7042867   2.1536907  54.9025184
  34.7781840   3.3552006  55.5000222  35.0704814   3.9157063  54.7812588
  35.2880461   3.6480567  56.2553381  30.8005721  -0.5522337  48.1347315
  30.3625151  -1.2686478  47.6752953  31.5416162  -0.3246222  47.5732407
  29.7415465   4.1332357  56.5893676  29.6991644   4.3593203  55.6602208
  30.6578164   3.8995731  56.7379477  33.1881099  -5.3983576  63.4874305
  33.5430487  -5.1712102  64.3468770  33.8353230  -5.0665199  62.8651560
  38.9178836  -2.2765140  54.1923634  38.7796734  -2.0863544  53.2644823
  38.5615055  -1.5145757  54.6491685  38.9448215  -0.2088613  59.2034905
  39.3784722  -0.3013324  60.0517959  39.6579796  -0.2331112  58.5654921
  27.8581266   1.0095386  56.3855638  28.6521864   0.5145706  56.1838213
  27.1472958   0.4813249  56.0223344  32.6776110   3.3913481  60.7368006
  32.7313133   3.9604418  61.5045722  31.8090892   3.5615366  60.3722043
  39.8063765  -0.1664912  61.7367791  39.9999655   0.7380898  61.9827066
  39.7064383  -0.6257493  62.5706376  34.8678874  -0.0158169  67.3108671
  34.7164380  -0.2447618  66.3938755  34.8583553   0.9412432  67.3240016
  31.6364210  -2.4426257  62.2954938  32.5656270  -2.2915097  62.1223905
  31.2155240  -2.3542236  61.4403584  30.4352542   1.5824408  60.0653475
  30.2963628   1.2143192  60.9379413  29.6467138   2.0972047  59.8937433
  31.0300694   6.6833504  51.4079012  31.2052450   6.2121548  52.2224635
  30.3433482   7.3099271  51.6360273  31.9857757   0.9606011  57.4542313
  31.6507590   0.9206781  58.3499963  31.4861703   0.2950727  56.9812723
  34.9216949  -1.6937955  47.7279373  34.3046119  -2.4191127  47.6312425
  34.4533437  -0.9328595  47.3846447  36.5771080   3.0160953  65.3885153
  36.5183627   2.3320173  64.7215736  36.9790599   3.7579943  64.9365779
  25.5961779   9.8322867  58.1818872  25.8358377  10.4641391  58.8597891
  24.7530976   9.4810907  58.4684231  36.5788488   0.9800537  63.6199133
  35.6915266   0.6426459  63.7425532  37.1487039   0.2483568  63.8567898
  30.1089641   5.6401990  60.5860376  30.0359813   6.4456961  61.0979681
  29.6667034   5.8393955  59.7608397  29.8979421   4.8773760  54.0963198
  29.1146943   5.4195440  54.1901422  30.5972166   5.3947739  54.4957439
  41.0605828  -3.6091245  58.3815694  41.0495704  -2.7266530  58.0109628
  40.1923208  -3.9619695  58.1870232  32.5688325   5.5388824  62.7418535
  33.2816297   6.1736288  62.6694436  32.0778353   5.6352690  61.9258537
  34.2905851  -0.5559924  54.3135826  33.3562130  -0.4358461  54.1440531
  34.4682520  -1.4587457  54.0495836  37.6778403  -4.7142604  54.8485861
  38.1438855  -3.8814613  54.7746163  38.1285903  -5.1797623  55.5531119
  27.6200238   3.2883267  63.5624106  28.3209698   3.9219750  63.7153500
  27.1495353   3.6297999  62.8019745  35.7454634   1.6301217  51.8472013
  36.0214478   1.5157811  52.7565887  34.8759133   1.2318702  51.8084186
  35.4201524  -4.1572125  61.3876656  34.7672974  -3.9096218  60.7329109
  35.7981904  -4.9707987  61.0539133  32.3808698   5.8787568  55.4904826
  32.5631092   5.0609224  55.9532578  33.2041684   6.0955260  55.0529716
  32.7150863   4.8055753  52.7519875  33.2438630   4.2948207  52.1390037
  32.9779083   4.4898283  53.6165408  31.4689097  -3.4152314  67.8742693
  30.7929734  -3.5158185  68.5445068  32.2916731  -3.5713101  68.3378690
  23.2167956   2.8219622  60.4955208  23.8021393   2.0763310  60.6283112
  23.0192795   3.1323579  61.3791872  26.0706611   5.8570869  55.5117651
  25.4016987   6.3416997  55.0281691  25.9319481   6.1040090  56.4261029
  30.2111880   7.8914613  62.1100309  30.7630188   8.0546235  62.8749394
  30.5518073   8.4819051  61.4380334  35.0622754   2.7175871  67.9648963
  35.6062658   3.3305829  67.4703918  34.4809599   3.2755449  68.4815976
  33.3480267   5.8396589  59.0963991  33.2231407   5.0386328  58.5874937
  34.0059358   6.3342782  58.6077961  35.4115176   3.6405609  60.7243541
  34.4645511   3.5210960  60.6521868  35.7597949   2.7528107  60.8069803
  32.4161609   3.4358325  56.9247893  32.2686571   2.5075032  57.1055463
  33.2415102   3.4578416  56.4404969  36.0195731   4.2586884  58.0112766
  36.9442278   4.0529745  57.8737217  35.8511034   4.0103285  58.9202108
  35.8091047   4.7772551  53.3674858  35.9827925   4.2118974  52.6148710
  36.3019938   5.5773446  53.1854348  41.6630438  -2.4591026  54.9865157
  42.1061584  -3.2083701  54.5884281  40.7856948  -2.4680890  54.6038889
  36.7966219   4.0939315  50.4671756  37.4917124   4.7146008  50.6859071
  37.1389370   3.2434667  50.7424134  38.6957643   1.5439021  51.9959087
  39.2208967   1.8826294  51.2708407  38.6079995   0.6086036  51.8122221
  30.3577691   5.4573095  64.1248963  30.6664818   5.2122241  64.9971663
  31.1553173   5.6619733  63.6367834  30.3798303   7.6111004  56.3554340
  29.9403294   7.1187383  57.0487197  31.1306420   7.0683972  56.1146415
  22.8590642   3.8022545  56.3578968  23.6848662   3.5026317  55.9777611
  22.5084694   3.0330168  56.8068757  27.8272175   3.1549013  58.4276642
  27.2052185   2.4919718  58.1278869  28.4977042   3.1810145  57.7450289
  38.3851549   2.1771925  67.3010285  37.5947092   2.1596063  66.7614784
  38.1484903   2.7160218  68.0559321  38.5049424  -0.9735609  64.6143013
  38.5547429  -1.1385602  65.5558536  38.3963347  -1.8408350  64.2240894
  27.3885682   1.7052937  51.9035102  27.5373803   2.3888401  51.2501775
  28.1952126   1.6858027  52.4184558  35.7953186  -4.9904681  65.9302320
  36.6963049  -5.1298216  65.6386318  35.8701161  -4.8250226  66.8700497
  40.0067621   1.4461332  64.8585035  39.7152429   1.8091313  65.6948496
  39.3939752   0.7328341  64.6798367  41.2063303  -0.9885788  57.3787605
  42.0410194  -0.5495984  57.5425165  41.3422432  -1.4647135  56.5595851
  38.2554809  -3.4306053  63.3265093  38.7308930  -3.2378407  62.5183944
  37.3320374  -3.3746867  63.0808476  30.8881088   4.2001067  49.3746850
  30.3155055   4.8191254  48.9217321  31.4613882   4.7500429  49.9086771
  36.9556478  -6.5540293  61.5593398  37.9073901  -6.4542195  61.5805622
  36.7859928  -7.3462024  62.0691483  34.1078348   4.4838217  50.5055432
  35.0409021   4.4183779  50.7088307  34.0201561   5.3194484  50.0469964
  36.7366364   3.8004088  47.4659379  36.6579996   3.4663951  48.3595137
  37.5576031   4.2925855  47.4650852  39.4344556  -3.3334173  60.6735698
  39.4020876  -4.2718172  60.8595382  40.0445179  -3.2550136  59.9401523
  39.5839044  -6.5423130  60.7193981  39.0678093  -7.3264673  60.5323910
  40.4678993  -6.8704413  60.8840501  45.2521105  -2.2718166  59.8141735
  45.9824494  -2.5332878  60.3749438  44.6428051  -3.0089444  59.8543803
  43.3336403  -4.1310304  60.4116186  42.6069566  -4.2654339  59.8032678
  42.9183689  -3.8233475  61.2172904  31.1566579  -0.4120374  68.1763559
  32.0769588  -0.2341775  68.3703605  31.1216162  -1.3564329  68.0243258
  38.5141639  -8.6226071  56.7075677  39.2902029  -8.1329618  56.9800294
  37.7889773  -8.1968017  57.1647546  40.9514197  -7.9098451  57.7649618
  41.5458688  -8.1502716  57.0542926  41.0240781  -8.6291321  58.3923154
  23.1711353   5.9335159  58.0792782  23.0365821   5.1735560  57.5130780
  22.7543415   6.6576059  57.6121571  34.3070316   1.1172083  47.0869358
  35.0106166   1.3222085  47.7027013  33.5832965   1.6848845  47.3518441
  35.1368126  -3.1318056  53.2071628  35.0803328  -2.6749504  52.3679260
  35.6896469  -3.8927371  53.0294471  38.9472932  -7.3428324  54.0321747
  38.6909867  -7.7431688  54.8629955  38.3225800  -6.6284530  53.9071886
  43.2585270  -4.6032251  56.5393039  42.6984828  -4.5339061  57.3124601
  42.6528774  -4.7791266  55.8192535  26.3280479   6.8304476  58.2911225
  26.2112863   7.7749909  58.1889915  25.5072925   6.5278038  58.6797024
  36.2157014   1.5554612  49.1367818  37.0502617   1.1235811  48.9545293
  36.0541356   1.3836626  50.0644712  35.8702906  -1.9413275  50.5024157
  35.8151710  -2.1069003  49.5612601  35.2448961  -1.2337242  50.6586347
  33.1848813   0.3635637  69.8277720  34.0539973   0.5376290  69.4664355
  32.7055564   1.1830054  69.7053449  27.3534993   7.4832738  61.5067153
  28.2562240   7.5156349  61.8233648  27.1272363   6.5533189  61.5213489
  29.1088595   6.2363725  58.1677232  28.1584226   6.2365587  58.0541604
  29.4121081   5.4896459  57.6513267  44.8441289  12.0724263  59.2322994
  45.4819699  11.9531011  58.5286335  44.7262132  13.0205107  59.2910947
  41.6530995  12.0251691  59.1684519  41.3149506  11.9092756  58.2805054
  42.5220763  11.6242856  59.1485525  37.5117811  13.8787168  55.1581410
  36.9482676  13.7877105  54.3897698  37.3970206  13.0587072  55.6383903
  42.1350778  13.1786543  65.1270725  42.1239419  12.7839341  64.2551228
  42.2971417  12.4452616  65.7204496  35.0582243  15.3738359  57.9965631
  35.8503534  15.0329184  57.5811930  35.2978893  15.4833334  58.9167784
  43.0917369  17.5458136  50.4695875  42.4405349  18.1312216  50.0829889
  43.8861732  18.0764330  50.5290912  37.0172996  14.6347273  50.8683009
  37.7903872  14.0876260  50.7295885  37.3698395  15.4991522  51.0797471
  38.8558039  15.9623655  64.0749909  38.5647905  16.8669286  63.9596575
  39.4915023  16.0040183  64.7893978  39.7814246  13.3400503  60.6651268
  40.3777818  13.1156526  59.9508231  39.8389217  12.5985249  61.2676716
  39.3539274  10.7939939  48.5001459  39.6064795  10.2721460  47.7384922
  38.4163833  10.6306084  48.6028143  44.3982557   9.7975717  56.3076203
  45.1845646   9.3795140  55.9566620  44.6621261  10.7021809  56.4757851
  44.5692634  15.2348567  51.0064859  43.9338467  15.3083194  51.7185764
  44.2390041  15.8242166  50.3283939  49.7990984   9.7350950  57.2109181
  50.5316156   9.1650167  57.4447010  49.0430340   9.3472551  57.6515687
  39.0735563  12.6968045  50.7025834  38.9571821  12.0212948  51.3706919
  39.1837823  12.2100419  49.8857987  41.4167104  12.1578192  54.4072523
  41.0525311  11.6308813  55.1185445  42.2734220  11.7676661  54.2339009
  47.3216405   3.4472524  61.6703790  46.9899729   4.3167935  61.4465005
  46.7262018   3.1308808  62.3497820  41.0572591   7.1868092  49.4033872
  41.2246993   8.0548328  49.7704343  40.8669760   7.3495373  48.4795161
  43.8147924  15.6485070  61.0699702  43.5148647  16.5510109  60.9615510
  43.4698984  15.3817254  61.9220855  37.2660406  12.0998867  57.1036407
  36.3410902  11.9675081  57.3114099  37.5144819  12.8793087  57.6006349
  47.2145068   8.1667611  58.7497140  46.3061945   8.0983019  58.4555901
  47.1632664   8.6439556  59.5778965  41.0361812   9.6425749  50.3880539
  40.9161437  10.0882800  51.2266019  40.3414400   9.9911067  49.8294077
  34.6269217  11.7432141  57.9380196  34.7561598  11.9966620  58.8519608
  33.9466668  12.3359849  57.6184851  38.7968704  22.4129391  54.0370670
  38.7192734  23.3637216  54.1159151  38.1930348  22.0675263  54.6945596
  41.2885934   9.5857256  66.6932037  40.5119268  10.1451176  66.6834902
  41.9276497  10.0714039  67.2146907  49.0806714   6.3684049  60.5275014
  48.4381095   6.6616582  59.8814808  48.5761643   6.2536969  61.3328210
  46.7346878  10.1147222  51.2160873  47.6464734  10.3474609  51.0408570
  46.2256525  10.6984266  50.6535951  39.5432306  12.3942710  66.2550004
  40.2846990  12.9327754  65.9784828  38.8369291  13.0208998  66.4121556
  45.0187646  14.5371850  64.8522165  45.4271002  14.0954261  64.1076798
  44.2964907  13.9624478  65.1056358  41.3718716   9.4744457  62.2255722
  42.2179911   9.8983870  62.3690371  41.3117353   8.8178081  62.9194285
  45.3416460  15.0973041  58.6074454  44.7125323  15.2618755  57.9050522
  44.9542122  15.5114650  59.3785418  49.2205692  16.0327479  55.9618818
  48.5356730  16.4126380  55.4115851  49.3049542  16.6422805  56.6950766
  44.5218161   7.1348825  63.8836896  44.2779093   7.8890886  63.3471172
  44.7978092   7.5134173  64.7184143  46.4756624  13.6787438  62.5614162
  46.6873519  14.3219197  61.8848543  46.4286372  12.8449754  62.0936092
  44.0782853   6.2905258  59.4650734  43.2167332   6.5886512  59.7567471
  44.1045287   6.5075657  58.5331766  40.8944422  14.8347449  55.8724539
  41.3582768  15.1135152  55.0829162  40.6301220  13.9330893  55.6897630
  37.7868503  14.3818930  58.8104303  38.3569860  14.8106199  58.1721787
  38.3776615  14.1001515  59.5088488  39.8313308  10.9570601  52.6814105
  40.5337352  11.4091645  53.1488031  39.4993937  10.3154420  53.3093998
  38.2793670   9.5482358  67.0565314  37.6492330  10.2298639  67.2900711
  38.1729758   9.4365439  66.1118452  33.5738642   9.2154154  57.9831238
  32.7837696   9.4711682  57.5071349  34.0649890  10.0302492  58.0883279
  47.5902452  16.5559393  60.7336519  48.4119895  16.1539580  60.4519201
  47.5864855  16.4527627  61.6852635  35.5253388   9.5798733  54.9414715
  34.7284551   9.6917427  55.4598210  35.2978980   9.9185385  54.0755605
  41.3559055  16.1043436  62.8897229  41.4203488  16.5663844  63.7255401
  40.6469979  15.4740801  63.0179539  31.8576345   9.4684644  60.4146229
  32.1084384  10.3531654  60.6803805  32.3935894   9.2889246  59.6421321
  55.6808445  12.8998141  57.0821490  54.9272153  12.3305540  56.9265495
  55.8155986  12.8660806  58.0292125  41.0707073  17.7711544  52.7576210
  40.9352748  18.6163079  53.1861058  41.6116885  17.9730821  51.9942144
  37.5574412   3.8503124  69.4190565  37.1641358   3.2969322  70.0938209
  38.3740553   4.1613702  69.8097083  34.5236470  15.2886982  53.3304135
  35.0360991  16.0830232  53.4809700  35.1759183  14.5913272  53.2637736
  36.3331355  18.4052738  55.4126888  36.5097983  19.3270703  55.2247872
  37.1288188  18.0911157  55.8421268  40.4742373   5.2661003  67.0110822
  41.2152087   5.8668156  66.9315284  40.7060296   4.5238640  66.4528864
  35.6183711  10.4517370  65.2889051  35.5037227   9.5502627  65.5896150
  34.7628229  10.6981067  64.9373868  42.6975549  18.3935110  66.8876552
  42.2539403  17.6071489  66.5697456  43.3592763  18.5814261  66.2220443
  37.4562670  19.9230912  61.4137230  38.0070096  19.7947975  60.6414224
  36.6174146  20.2225801  61.0632123  44.7956787  18.6737910  64.9157953
  44.7775263  19.4946791  64.4238222  45.7176707  18.5491985  65.1408094
  41.2529841  16.1882040  65.7581461  41.7858178  15.4270328  65.5280769
  40.7243923  15.8955691  66.5005616  44.4199536   1.2942106  61.2875103
  44.0763806   2.1843747  61.2114214  44.7878499   1.1043763  60.4244688
  32.4885387  13.6175636  54.1063705  33.3260609  14.0272644  53.8897413
  32.6663655  12.6775078  54.0763899  44.3849819  11.2850717  49.7947538
  43.8696443  12.0555321  50.0335926  44.1127128  10.6115853  50.4180600
  41.9696930   6.1300418  54.8532777  41.1138527   5.7407268  54.6738415
  42.3823882   6.2092378  53.9932562  43.4996077   3.6646761  59.2524336
  42.9960872   3.6276896  58.4392142  43.7926684   4.5739504  59.3120993
  39.7438963   3.7485491  58.2590518  40.6091959   3.5528299  57.8996408
  39.8116472   3.5195842  59.1859875  49.3584093  14.0383071  51.7300712
  48.5813536  13.6994231  51.2855874  50.0375574  14.0435695  51.0555677
  44.1736122   9.1577809  51.6207320  43.8686258   9.4723958  52.4717463
  45.1266564   9.2359229  51.6634653  42.6182554  15.3168032  53.2700274
  42.0903916  14.5820792  52.9573511  42.1170057  16.0942709  53.0240242
  47.5975400  13.5117053  58.3867320  46.9399075  14.2016314  58.4747448
  48.4015799  13.9013485  58.7301306  37.3501282   5.9787698  55.6306885
  37.9245034   5.7562880  54.8980078  37.9372264   6.0476393  56.3835486
  46.4080859  11.8661425  56.4371262  46.9212741  12.4991417  56.9392971
  47.0582083  11.2662621  56.0714622  37.6770869   8.0092159  49.6502770
  36.8408181   8.3466846  49.9712045  37.5375639   7.8741139  48.7129907
  39.6523949   2.8528947  54.3581954  38.9988362   2.5377965  53.7338569
  39.6104424   2.2304688  55.0841777  40.7635154  13.1348242  46.2735247
  39.8562216  12.9037496  46.4726396  41.2606186  12.3385862  46.4609228
  43.6703233  21.8445750  49.1931933  42.9964932  22.1477446  49.8016891
  44.0569055  22.6474830  48.8437390  42.8861690   9.3410881  58.6829602
  41.9684251   9.5625828  58.5251290  43.3021833   9.4157191  57.8241309
  43.6696738  10.7402297  53.8132282  44.4168557  11.2523694  53.5039404
  43.9388327  10.4186349  54.6736676  41.9423388  13.2360837  50.7959237
  41.0334607  12.9519870  50.8931706  41.9718472  13.6559916  49.9362543
  47.1742655  16.8467427  54.5650404  46.7204982  16.0058337  54.6215595
  46.5436622  17.4828825  54.9025184  46.1175575   7.7759413  55.7951072
  45.3798332   7.2636799  56.1261314  46.3702348   7.3359794  54.9834349
  45.6175594  18.6843923  55.5000222  45.9098569  19.2448981  54.7812588
  46.1274215  18.9772484  56.2553381  46.2187202   0.5535665  56.3892841
  46.5246079  -0.3066972  56.1018756  46.9439807   1.1453285  56.1891835
  32.5111558  10.9566351  54.7774439  32.3135958  10.3635712  54.0525505
  31.9558222  10.6518562  55.4950378  40.4908282  10.8489458  56.8969032
  40.5456892   9.8963294  56.8211509  39.6799484  11.0048897  57.3810330
  41.6399476  14.7769581  48.1347315  41.2018906  14.0605440  47.6752953
  42.3809916  15.0045696  47.5732407  38.4300642   9.4666518  54.6559411
  37.6168507   9.7660688  55.0624603  38.9259636   9.0722206  55.3733893
  40.5809220  19.4624275  56.5893676  40.5385398  19.6885121  55.6602208
  41.4971918  19.2287649  56.7379477  44.0274853   9.9308342  63.4874305
  44.3824241  10.1579815  64.3468770  44.6746985  10.2626719  62.8651560
  49.7572590  13.0526778  54.1923634  49.6190489  13.2428374  53.2644823
  49.4008809  13.8146161  54.6491685  37.9214717   7.0384873  60.2720646
  38.5614096   6.8973632  59.5743609  37.0892247   6.7519387  59.8959248
  49.7841970  15.1203305  59.2034905  50.2178477  15.0278594  60.0517959
  50.4973551  15.0960805  58.5654921  38.6975020  16.3387304  56.3855638
  39.4915619  15.8437624  56.1838213  37.9866713  15.8105167  56.0223344
  43.5169865  18.7205399  60.7368006  43.5706887  19.2896335  61.5045722
  42.6484646  18.8907284  60.3722043  35.0057784  10.4830385  52.4615391
  34.0755372  10.4214841  52.6785353  35.1015256   9.9606338  51.6652032
  34.9243333   7.0085198  55.0493633  35.1850150   7.9230531  54.9402793
  35.7460505   6.5409641  55.1990245  36.3968258   8.4222955  62.2192457
  37.0691312   8.2140317  61.5705106  35.5698045   8.2245041  61.7797689
  50.6457520  15.1627006  61.7367791  50.8393410  16.0672816  61.9827066
  50.5458138  14.7034425  62.5706376  42.2993830   5.0484896  64.2358118
  41.6521745   5.7474846  64.1422594  43.0694846   5.4821040  64.6034366
  45.7072628  15.3133748  67.3108671  45.5558135  15.0844300  66.3938755
  45.6977308  16.2704350  67.3240016  42.4757965  12.8865661  62.2954938
  43.4050025  13.0376821  62.1223905  42.0548995  12.9749682  61.4403584
  41.2746296  16.9116326  60.0653475  41.1357382  16.5435110  60.9379413
  40.4860893  17.4263965  59.8937433  41.8694448  22.0125422  51.4079012
  42.0446204  21.5413465  52.2224635  41.1827236  22.6391188  51.6360273
  42.8251512  16.2897928  57.4542313  42.4901344  16.2498698  58.3499963
  42.3255457  15.6242644  56.9812723  36.7995756  11.6965558  62.9794894
  36.6615553  10.9645797  63.5806433  37.7100679  11.6074458  62.6979082
  45.7610703  13.6353963  47.7279373  45.1439874  12.9100791  47.6312425
  45.2927192  14.3963323  47.3846447  39.4278056  11.4085518  62.4678574
  40.1377675  10.7678710  62.4265192  39.3847364  11.6598412  63.3904755
  47.4164835  18.3452871  65.3885153  47.3577381  17.6612091  64.7215736
  47.8184353  19.0871861  64.9365779  38.1406990   8.3950735  64.2874213
  37.6044347   7.9441474  64.9395810  37.5523699   8.5296644  63.5444678
  36.4355534  25.1614785  58.1818872  36.6752132  25.7933309  58.8597891
  35.5924730  24.8102825  58.4684231  37.5509249   7.8539387  46.8500677
  36.6738715   7.7328188  46.4862924  38.0267002   7.0625465  46.5979566
  47.4182242  16.3092455  63.6199133  46.5309021  15.9718377  63.7425532
  47.9880793  15.5775486  63.8567898  29.0711389  12.6416547  56.9442184
  29.7582429  12.3278277  56.3563200  28.9159518  13.5457911  56.6709436
  33.8746111   7.5306743  61.3727208  33.7904300   6.9232413  60.6377618
  33.0528818   8.0215762  61.3736704  40.9483396  20.9693907  60.5860376
  40.8753567  21.7748879  61.0979681  40.5060789  21.1685873  59.7608397
  40.7373175  20.2065677  54.0963198  39.9540697  20.7487357  54.1901422
  41.4365920  20.7239657  54.4957439  44.0469825   6.0160307  56.7397403
  44.5438525   5.2630269  56.4198473  43.2756807   6.0524623  56.1740612
  51.8999583  11.7200672  58.3815694  51.8889459  12.6025388  58.0109628
  51.0316962  11.3672223  58.1870232  43.4082079  20.8680741  62.7418535
  44.1210051  21.5028206  62.6694436  42.9172108  20.9644607  61.9258537
  45.1299606  14.7731994  54.3135826  44.1955885  14.8933456  54.1440531
  45.3076274  13.8704461  54.0495836  40.6304794   8.1577690  56.4669088
  40.2602582   7.6048730  57.1549993  41.1263886   7.5535823  55.9144088
  48.5172157  10.6149313  54.8485861  48.9832610  11.4477305  54.7746163
  48.9679658  10.1494295  55.5531119  38.4593993  18.6175185  63.5624106
  39.1603452  19.2511668  63.7153500  37.9889108  18.9589916  62.8019745
  46.5848388  16.9593135  51.8472013  46.8608232  16.8449729  52.7565887
  45.7152887  16.5610619  51.8084186  46.4888820   2.9829900  58.8876762
  45.5751900   3.2134127  59.0558969  46.9181922   3.0668344  59.7390794
  46.2595279  11.1719792  61.3876656  45.6066729  11.4195700  60.7329109
  46.6375658  10.3583930  61.0539133  43.2202452  21.2079485  55.4904826
  43.4024847  20.3901141  55.9532578  44.0435438  21.4247178  55.0529716
  43.5544618  20.1347670  52.7519875  44.0832384  19.6240125  52.1390037
  43.8172838  19.8190201  53.6165408  42.3082852  11.9139603  67.8742693
  41.6323489  11.8133733  68.5445068  43.1310485  11.7578817  68.3378690
  34.0561711  18.1511540  60.4955208  34.6415147  17.4055228  60.6283112
  33.8586549  18.4615496  61.3791872  36.9100366  21.1862787  55.5117651
  36.2410741  21.6708915  55.0281691  36.7713236  21.4332008  56.4261029
  28.6479365  10.7217140  59.2159651  28.6863465  10.1880731  60.0096769
  28.1419658  10.1952346  58.5970629  41.0505634  23.2206531  62.1100309
  41.6023942  23.3838152  62.8749394  41.3911828  23.8110969  61.4380334
  36.0270128   5.5681680  62.7122194  36.0911454   6.4296511  62.2999591
  35.9637248   4.9555682  61.9794552  35.5022400   7.6404813  66.3595228
  36.1294439   7.2581890  66.9732752  34.6450319   7.4219015  66.7250920
  45.9016509  18.0467788  67.9648963  46.4456413  18.6597746  67.4703918
  45.3203354  18.6047367  68.4815976  32.2787943   9.4481242  52.2913583
  32.5741384   8.5391921  52.2380636  31.3775979   9.4268982  51.9694585
  44.1874022  21.1688506  59.0963991  44.0625161  20.3678246  58.5874937
  44.8453113  21.6634700  58.6077961  35.8082190   7.5237239  58.2741131
  35.0868776   8.1373206  58.1348605  36.5975446   8.0595004  58.1957777
  46.2508930  18.9697526  60.7243541  45.3039266  18.8502877  60.6521868
  46.5991703  18.0820024  60.8069803  38.6108503   4.8591665  64.5481783
  39.1342905   5.1053962  65.3108092  38.3920837   5.6911700  64.1284920
  34.0075785   7.1295340  52.4152908  33.6788491   6.2492719  52.2328014
  34.3615155   7.0743009  53.3029297  43.2555363  18.7650243  56.9247893
  43.1080326  17.8366950  57.1055463  44.0808857  18.7870333  56.4404969
  37.1217608   7.4168310  52.7828386  37.4613680   7.9454231  52.0606994
  37.5689728   7.7548716  53.5586952  46.8589485  19.5878801  58.0112766
  47.7836033  19.3821663  57.8737217  46.6904789  19.3395202  58.9202108
  39.8161049   5.8005360  62.2331454  39.4757869   5.0013173  62.6352134
  39.1100055   6.1007071  61.6608287  40.4677520   2.8854673  60.6858777
  41.2903590   2.4115151  60.5637667  40.7115584   3.6645157  61.1857463
  39.1085755   5.9142931  50.9821678  39.8294117   6.2924184  50.4785395
  38.4851059   6.6331808  51.0856656  43.2516878   6.6188080  51.9180011
  43.4680492   7.5012718  51.6168839  42.7710945   6.2274294  51.1885653
  37.9916099   9.5773793  58.4950755  37.8460680   9.8914096  59.3875037
  37.5141303  10.1958694  57.9421654  39.8512482   6.5676341  58.5431645
  39.8374051   5.6717435  58.2063943  40.5684910   6.5747005  59.1769931
  41.7038613   7.0013682  60.5884772  41.4456391   7.9230752  60.5869103
  41.1723653   6.6044116  61.2785236  46.6484801  20.1064469  53.3674858
  46.8221679  19.5410891  52.6148710  47.1413693  20.9065364  53.1854348
  32.4661761  12.1179138  61.4338416  31.9215229  12.8938946  61.5658691
  33.3441111  12.4649942  61.2757538  39.2549378   5.4490722  53.8119215
  39.3765289   4.5207368  54.0110102  38.9651420   5.4629408  52.8997530
  42.1240568   3.1345632  56.9485935  42.1462265   3.1984965  55.9937914
  42.5408627   2.2950141  57.1426441  52.5024193  12.8700892  54.9865157
  52.9455339  12.1208217  54.5884281  51.6250703  12.8611028  54.6038889
  47.6359974  19.4231233  50.4671756  48.3310879  20.0437926  50.6859071
  47.9783124  18.5726584  50.7424134  33.2527783  11.2449034  64.3268573
  32.5109519  11.3931669  64.9133204  32.9320527  11.5057300  63.4635323
  49.5351397  16.8730939  51.9959087  50.0602721  17.2118211  51.2708407
  49.4473750  15.9377954  51.8122221  41.1971446  20.7865012  64.1248963
  41.5058572  20.5414159  64.9971663  41.9946928  20.9911651  63.6367834
  41.2192058  22.9402922  56.3554340  40.7797048  22.4479301  57.0487197
  41.9700175  22.3975890  56.1146415  33.6984397  19.1314463  56.3578968
  34.5242417  18.8318235  55.9777611  33.3478449  18.3622085  56.8068757
  38.6665930  18.4840931  58.4276642  38.0445939  17.8211636  58.1278869
  39.3370797  18.5102063  57.7450289  31.8993002  17.0500789  57.3167902
  31.0624910  16.6222964  57.1351903  31.8716647  17.2433233  58.2538693
  38.7390457   6.9622719  68.0209148  38.7878613   7.8384842  67.6386917
  39.2812972   6.4200112  67.4480791  49.2245303  17.5063842  67.3010285
  48.4340847  17.4887981  66.7614784  48.9878658  18.0452136  68.0559321
  49.3443178  14.3556309  64.6143013  49.3941183  14.1906316  65.5558536
  49.2357102  13.4883568  64.2240894  38.2279437  17.0344854  51.9035102
  38.3767557  17.7180319  51.2501775  39.0345880  17.0149944  52.4184558
  46.6346941  10.3387237  65.9302320  47.5356803  10.1993702  65.6386318
  46.7094915  10.5041692  66.8700497  40.9689746   7.7154091  64.7755506
  40.0993055   8.0087657  64.5038095  41.2049226   8.2994536  65.4962770
  50.8461375  16.7753250  64.8585035  50.5546183  17.1383231  65.6948496
  50.2333506  16.0620258  64.6798367  52.0457057  14.3406130  57.3787605
  52.8803949  14.7795934  57.5425165  52.1816186  13.8644783  56.5595851
  49.0948563  11.8985865  63.3265093  49.5702685  12.0913511  62.5183944
  48.1714129  11.9545051  63.0808476  35.9832070  13.0610032  52.9096171
  35.7378112  12.1572362  53.1076381  36.1527984  13.0627182  51.9675649
  43.6728780   3.9333708  62.2920927  44.1910724   4.6694735  61.9667415
  43.3183913   4.2397702  63.1267686  35.2527717   8.7938390  50.4082332
  34.5596962   8.8682745  49.7522368  35.0079469   8.0298733  50.9303849
  43.9241374   0.3533991  57.8121823  44.2043128  -0.3142820  58.4382250
  44.7091981   0.5463087  57.2996487  41.7274842  19.5292985  49.3746850
  41.1548809  20.1483172  48.9217321  42.3007636  20.0792346  49.9086771
  47.7950232   8.7751625  61.5593398  48.7467655   8.8749723  61.5805622
  47.6253683   7.9829893  62.0691483  45.8164612   5.8607208  61.7452799
  45.2214544   6.1412221  61.0499288  45.5314308   6.3501109  62.5169540
  44.9472102  19.8130135  50.5055432  45.8802775  19.7475697  50.7088307
  44.8595315  20.6486402  50.0469964  47.5760119  19.1296005  47.4659379
  47.4973750  18.7955869  48.3595137  48.3969786  19.6217773  47.4650852
  50.2738310  11.9957745  60.6735698  50.2414630  11.0573745  60.8595382
  50.8838934  12.0741781  59.9401523  42.1121641  10.8653798  46.7162902
  43.0580746  10.7360006  46.7851320  41.7335886  10.1268459  47.1932330
  50.4232799   8.7868788  60.7193981  49.9071847   8.0027245  60.5323910
  51.3072747   8.4587505  60.8840501  48.0843525   2.5309804  56.6789794
  47.8868347   2.2224892  57.5633126  48.6943231   3.2571442  56.8087724
  56.0914860  13.0573751  59.8141735  56.8218248  12.7959040  60.3749438
  55.4821805  12.3202473  59.8543803  54.1730157  11.1981614  60.4116186
  53.4463321  11.0637579  59.8032678  53.7577444  11.5058443  61.2172904
  41.9960333  14.9171544  68.1763559  42.9163343  15.0950143  68.3703605
  41.9609916  13.9727589  68.0243258  40.2964558   8.7903774  46.6517787
  39.3896013   8.4936887  46.7280501  40.5740539   8.4933592  45.7852073
  31.2142498  10.1110137  57.1016834  30.8945283   9.2575446  56.8091208
  30.6675927  10.3258715  57.8574801  34.9922406  12.8272578  60.8186340
  35.2108416  13.7589686  60.8374374  35.4048180  12.4680553  61.6041144
  41.9126624   3.3340664  52.8062029  41.1027352   2.9887749  53.1817275
  42.6011041   3.0248207  53.3949640  43.8417172   2.4118710  54.4286325
  44.3948211   2.8314164  55.0876348  44.0787258   1.4854459  54.4709281
  39.8650271   8.4005784  70.2089089  39.7646998   9.3500141  70.1401180
  39.6471813   8.0724023  69.3365159  39.0663343   5.6490709  46.7929766
  39.9282507   5.9745607  47.0525584  39.2513687   4.8622205  46.2802832
  31.0830758  13.7313049  59.0709955  30.3894230  13.3167002  58.5579910
  31.8303749  13.7733585  58.4743374  47.2195979   4.5219236  53.9364989
  46.6394648   5.1804040  53.5543042  46.9531912   3.6996580  53.5252407
  45.6699546   3.9224293  56.1386310  46.1699324   4.0340828  55.3300629
  46.3135153   3.6185346  56.7787118  39.7281541  11.8302923  69.0254151
  39.2448623  12.6303283  69.2318040  39.8142480  11.8410868  68.0721595
  32.9967501  13.6631303  56.9475970  32.9738189  13.7618990  55.9957853
  33.3068137  14.5096453  57.2693136  35.6554879  15.7207458  61.0622585
  36.6098132  15.6891400  60.9952516  35.4567402  15.2598081  61.8772810
  36.2454261  14.2908574  63.6293382  37.0647150  14.7852652  63.6528219
  36.5191069  13.3740542  63.6010950  46.0020857   6.6819326  52.9921338
  45.1146712   6.9668977  52.7741532  46.4174846   6.5213089  52.1448615
  49.3535393   6.7065847  56.7075677  50.1295783   7.1962299  56.9800294
  48.6283527   7.1323901  57.1647546  51.7907952   7.4193466  57.7649618
  52.3852443   7.1789202  57.0542926  51.8634536   6.7000597  58.3923154
  34.0105108  21.2627077  58.0792782  33.8759576  20.5027478  57.5130780
  33.5937170  21.9867977  57.6121571  45.1464071  16.4464001  47.0869358
  45.8499921  16.6514003  47.7027013  44.4226719  17.0140763  47.3518441
  45.9761881  12.1973862  53.2071628  45.9197082  12.6542413  52.3679260
  46.5290223  11.4364547  53.0294471  49.7866687   7.9863594  54.0321747
  49.5303621   7.5860229  54.8629955  49.1619555   8.7007388  53.9071886
  54.0979025  10.7259667  56.5393039  53.5378583  10.7952856  57.3124601
  53.4922528  10.5500652  55.8192535  37.1674234  22.1596394  58.2911225
  37.0506618  23.1041827  58.1889915  36.3466680  21.8569956  58.6797024
  47.0550768  16.8846530  49.1367818  47.8896372  16.4527728  48.9545293
  46.8935111  16.7128544  50.0644712  46.7096660  13.3878643  50.5024157
  46.6545464  13.2222915  49.5612601  46.0842715  14.0954676  50.6586347
  31.4989175   8.6246708  64.3285579  32.1448039   8.1145662  64.8172804
  31.2906326   9.3615389  64.9029004  44.0242567  15.6927555  69.8277720
  44.8933727  15.8668207  69.4664355  43.5449319  16.5121972  69.7053449
  40.0192786   2.8886752  50.0809475  40.0071456   3.8328592  50.2377746
  40.9116208   2.7056898  49.7868937  38.1928748  22.8124656  61.5067153
  39.0955994  22.8448266  61.8233648  37.9666118  21.8825107  61.5213489
  39.9482350  21.5655643  58.1677232  38.9977981  21.5657504  58.0541604
  40.2514836  20.8188377  57.6513267  43.8344905  -0.5170471  54.3355412
  43.0677301  -1.0711984  54.4812095  44.2455610  -0.4448602  55.1969564
  35.8386666   5.7714325  68.4260593  36.7018128   5.4151129  68.6363918
  35.2652077   5.4328219  69.1135998  55.6835043  27.4016181  59.2322994
  56.3213453  27.2822928  58.5286335  55.5655886  28.3497025  59.2910947
  52.4924749  27.3543609  59.1684519  52.1543261  27.2384674  58.2805054
  53.3614518  26.9534774  59.1485525  48.3511565  29.2079085  55.1581410
  47.7876430  29.1169022  54.3897698  48.2363960  28.3878990  55.6383903
  45.8975997  30.7030277  57.9965631  46.6897289  30.3621102  57.5811930
  46.1372647  30.8125252  58.9167784  53.9311124  32.8750053  50.4695875
  53.2799104  33.4604134  50.0829889  54.7255487  33.4056248  50.5290912
  47.8566751  29.9639190  50.8683009  48.6297627  29.4168177  50.7295885
  48.2092150  30.8283440  51.0797471  49.6951794  31.2915573  64.0749909
  49.4041660  32.1961203  63.9596575  50.3308778  31.3332100  64.7893978
  50.6208000  28.6692421  60.6651268  51.2171573  28.4448444  59.9508231
  50.6782972  27.9277167  61.2676716  50.1933029  26.1231856  48.5001459
  50.4458549  25.6013378  47.7384922  49.2557588  25.9598002  48.6028143
  55.2376312  25.1267635  56.3076203  56.0239401  24.7087058  55.9566620
  55.5015016  26.0313727  56.4757851  55.4086389  30.5640485  51.0064859
  54.7732222  30.6375112  51.7185764  55.0783795  31.1534084  50.3283939
  60.6384739  25.0642868  57.2109181  61.3709911  24.4942085  57.4447010
  59.8824094  24.6764468  57.6515687  49.9129318  28.0259962  50.7025834
  49.7965576  27.3504866  51.3706919  50.0231577  27.5392336  49.8857987
  52.2560858  27.4870110  54.4072523  51.8919066  26.9600730  55.1185445
  53.1127974  27.0968579  54.2339009  58.1610159  18.7764442  61.6703790
  57.8293484  19.6459853  61.4465005  57.5655772  18.4600726  62.3497820
  51.8966345  22.5160009  49.4033872  52.0640748  23.3840246  49.7704343
  51.7063515  22.6787291  48.4795161  48.1054160  27.4290785  57.1036407
  47.1804657  27.2966999  57.3114099  48.3538573  28.2085004  57.6006349
  58.0538822  23.4959528  58.7497140  57.1455700  23.4274937  58.4555901
  58.0026418  23.9731473  59.5778965  51.8755566  24.9717667  50.3880539
  51.7555192  25.4174717  51.2266019  51.1808155  25.3202984  49.8294077
  45.4662971  27.0724059  57.9380196  45.5955352  27.3258537  58.8519608
  44.7860422  27.6651767  57.6184851  49.6362458  37.7421308  54.0370670
  49.5586488  38.6929134  54.1159151  49.0324102  37.3967181  54.6945596
  52.1279688  24.9149174  66.6932037  51.3513022  25.4743094  66.6834902
  52.7670251  25.4005957  67.2146907  59.9200469  21.6975967  60.5275014
  59.2774849  21.9908500  59.8814808  59.4155397  21.5828887  61.3328210
  57.5740632  25.4439140  51.2160873  58.4858489  25.6766527  51.0408570
  57.0650280  26.0276184  50.6535951  50.3826061  27.7234627  66.2550004
  51.1240745  28.2619671  65.9784828  49.6763046  28.3500916  66.4121556
  52.2112470  24.8036374  62.2255722  53.0573665  25.2275788  62.3690371
  52.1511108  24.1469999  62.9194285  56.1810215  30.4264958  58.6074454
  55.5519077  30.5910672  57.9050522  55.7935877  30.8406568  59.3785418
  60.0599447  31.3619396  55.9618818  59.3750485  31.7418298  55.4115851
  60.1443296  31.9714723  56.6950766  55.3611916  22.4640743  63.8836896
  55.1172847  23.2182803  63.3471172  55.6371846  22.8426090  64.7184143
  54.9176607  21.6197176  59.4650734  54.0561086  21.9178429  59.7567471
  54.9439042  21.8367575  58.5331766  51.7338177  30.1639366  55.8724539
  52.1976522  30.4427069  55.0829162  51.4694975  29.2622811  55.6897630
  48.6262258  29.7110848  58.8104303  49.1963615  30.1398116  58.1721787
  49.2170370  29.4293433  59.5088488  50.6707063  26.2862519  52.6814105
  51.3731106  26.7383562  53.1488031  50.3387691  25.6446338  53.3093998
  49.1187424  24.8774275  67.0565314  48.4886085  25.5590556  67.2900711
  49.0123512  24.7657357  66.1118452  44.4132397  24.5446071  57.9831238
  43.6231451  24.8003600  57.5071349  44.9043644  25.3594409  58.0883279
  46.3647142  24.9090651  54.9414715  45.5678305  25.0209345  55.4598210
  46.1372734  25.2477303  54.0755605  42.6970100  24.7976562  60.4146229
  42.9478138  25.6823572  60.6803805  43.2329648  24.6181163  59.6421321
  66.5202199  28.2290059  57.0821490  65.7665908  27.6597457  56.9265495
  66.6549741  28.1952724  58.0292125  51.9100827  33.1003461  52.7576210
  51.7746502  33.9454997  53.1861058  52.4510640  33.3022739  51.9942144
  48.3968167  19.1795041  69.4190565  48.0035113  18.6261240  70.0938209
  49.2134307  19.4905620  69.8097083  45.3630225  30.6178899  53.3304135
  45.8754745  31.4122150  53.4809700  46.0152938  29.9205190  53.2637736
  47.1725109  33.7344656  55.4126888  47.3491738  34.6562620  55.2247872
  47.9681943  33.4203075  55.8421268  51.3136128  20.5952920  67.0110822
  52.0545841  21.1960074  66.9315284  51.5454051  19.8530558  66.4528864
  46.4577466  25.7809288  65.2889051  46.3430981  24.8794545  65.5896150
  45.6021984  26.0272984  64.9373868  48.2956425  35.2522830  61.4137230
  48.8463850  35.1239893  60.6414224  47.4567901  35.5517719  61.0632123
  55.2593291  16.6234023  61.2875103  54.9157560  17.5135665  61.2114214
  55.6272254  16.4335681  60.4244688  43.3279142  28.9467554  54.1063705
  44.1654364  29.3564562  53.8897413  43.5057409  28.0066996  54.0763899
  55.2243574  26.6142634  49.7947538  54.7090197  27.3847239  50.0335926
  54.9520882  25.9407771  50.4180600  52.8090685  21.4592335  54.8532777
  51.9532281  21.0699186  54.6738415  53.2217636  21.5384296  53.9932562
  54.3389831  18.9938678  59.2524336  53.8354627  18.9568814  58.4392142
  54.6320438  19.9031421  59.3120993  50.5832717  19.0777408  58.2590518
  51.4485714  18.8820217  57.8996408  50.6510226  18.8487760  59.1859875
  60.1977848  29.3674989  51.7300712  59.4207291  29.0286149  51.2855874
  60.8769329  29.3727612  51.0555677  55.0129877  24.4869727  51.6207320
  54.7080012  24.8015876  52.4717463  55.9660319  24.5651146  51.6634653
  53.4576309  30.6459950  53.2700274  52.9297670  29.9112709  52.9573511
  52.9563811  31.4234626  53.0240242  58.4369155  28.8408970  58.3867320
  57.7792829  29.5308232  58.4747448  59.2409554  29.2305402  58.7301306
  48.1895036  21.3079616  55.6306885  48.7638788  21.0854798  54.8980078
  48.7766019  21.3768311  56.3835486  57.2474613  27.1953343  56.4371262
  57.7606495  27.8283335  56.9392971  57.8975837  26.5954539  56.0714622
  48.5164623  23.3384077  49.6502770  47.6801936  23.6758764  49.9712045
  48.3769393  23.2033057  48.7129907  50.4917704  18.1820865  54.3581954
  49.8382116  17.8669882  53.7338569  50.4498178  17.5596605  55.0841777
  51.6028909  28.4640160  46.2735247  50.6955971  28.2329414  46.4726396
  52.0999941  27.6677779  46.4609228  54.5096988  37.1737667  49.1931933
  53.8358686  37.4769364  49.8016891  54.8962810  37.9766748  48.8437390
  53.7255444  24.6702799  58.6829602  52.8078006  24.8917746  58.5251290
  54.1415588  24.7449109  57.8241309  54.5090492  26.0694214  53.8132282
  55.2562311  26.5815611  53.5039404  54.7782082  25.7478267  54.6736676
  52.7817142  28.5652755  50.7959237  51.8728362  28.2811788  50.8931706
  52.8112226  28.9851834  49.9362543  58.0136410  32.1759344  54.5650404
  57.5598737  31.3350254  54.6215595  57.3830376  32.8120743  54.9025184
  56.9569329  23.1051330  55.7951072  56.2192086  22.5928717  56.1261314
  57.2096103  22.6651712  54.9834349  57.0580957  15.8827582  56.3892841
  57.3639833  15.0224946  56.1018756  57.7833561  16.4745203  56.1891835
  43.3505313  26.2858269  54.7774439  43.1529712  25.6927630  54.0525505
  42.7951977  25.9810479  55.4950378  51.3302036  26.1781376  56.8969032
  51.3850646  25.2255212  56.8211509  50.5193238  26.3340815  57.3810330
  52.4793230  30.1061499  48.1347315  52.0412660  29.3897358  47.6752953
  53.2203671  30.3337613  47.5732407  49.2694396  24.7958435  54.6559411
  48.4562262  25.0952606  55.0624603  49.7653390  24.4014124  55.3733893
  51.4202974  34.7916192  56.5893676  51.3779153  35.0177039  55.6602208
  52.3365673  34.5579567  56.7379477  54.8668608  25.2600260  63.4874305
  55.2217996  25.4871733  64.3468770  55.5140739  25.5918637  62.8651560
  60.5966345  28.3818696  54.1923634  60.4584243  28.5720292  53.2644823
  60.2402564  29.1438078  54.6491685  48.7608471  22.3676791  60.2720646
  49.4007850  22.2265550  59.5743609  47.9286002  22.0811304  59.8959248
  49.5368775  31.6679221  56.3855638  50.3309373  31.1729541  56.1838213
  48.8260467  31.1397084  56.0223344  45.8451538  25.8122303  52.4615391
  44.9149126  25.7506758  52.6785353  45.9409010  25.2898256  51.6652032
  45.7637087  22.3377116  55.0493633  46.0243905  23.2522449  54.9402793
  46.5854260  21.8701558  55.1990245  47.2362013  23.7514873  62.2192457
  47.9085066  23.5432235  61.5705106  46.4091799  23.5536959  61.7797689
  53.1387585  20.3776814  64.2358118  52.4915500  21.0766764  64.1422594
  53.9088600  20.8112958  64.6034366  53.3151719  28.2157579  62.2954938
  54.2443779  28.3668738  62.1223905  52.8942749  28.3041600  61.4403584
  52.1140051  32.2408243  60.0653475  51.9751137  31.8727028  60.9379413
  51.3254647  32.7555883  59.8937433  52.7088203  37.3417340  51.4079012
  52.8839959  36.8705383  52.2224635  52.0220991  37.9683106  51.6360273
  53.6645266  31.6189846  57.4542313  53.3295099  31.5790616  58.3499963
  53.1649212  30.9534562  56.9812723  47.6389510  27.0257476  62.9794894
  47.5009308  26.2937715  63.5806433  48.5494433  26.9366376  62.6979082
  56.6004458  28.9645880  47.7279373  55.9833628  28.2392708  47.6312425
  56.1320946  29.7255241  47.3846447  50.2671811  26.7377435  62.4678574
  50.9771429  26.0970627  62.4265192  50.2241119  26.9890330  63.3904755
  48.9800745  23.7242653  64.2874213  48.4438102  23.2733392  64.9395810
  48.3917453  23.8588562  63.5444678  47.2749288  40.4906702  58.1818872
  47.5145886  41.1225227  58.8597891  46.4318485  40.1394742  58.4684231
  48.3903004  23.1831305  46.8500677  47.5132470  23.0620105  46.4862924
  48.8660757  22.3917383  46.5979566  39.9105144  27.9708464  56.9442184
  40.5976184  27.6570194  56.3563200  39.7553272  28.8749829  56.6709436
  44.7139866  22.8598661  61.3727208  44.6298055  22.2524330  60.6377618
  43.8922572  23.3507679  61.3736704  51.7877150  36.2985825  60.5860376
  51.7147321  37.1040796  61.0979681  51.3454543  36.4977791  59.7608397
  51.5766930  35.5357595  54.0963198  50.7934452  36.0779275  54.1901422
  52.2759675  36.0531575  54.4957439  54.8863580  21.3452224  56.7397403
  55.3832279  20.5922187  56.4198473  54.1150561  21.3816541  56.1740612
  62.7393337  27.0492590  58.3815694  62.7283213  27.9317305  58.0109628
  61.8710717  26.6964141  58.1870232  55.9693360  30.1023912  54.3135826
  55.0349639  30.2225374  54.1440531  56.1470029  29.1996378  54.0495836
  51.4698549  23.4869607  56.4669088  51.0996336  22.9340648  57.1549993
  51.9657641  22.8827741  55.9144088  59.3565912  25.9441231  54.8485861
  59.8226364  26.7769222  54.7746163  59.8073412  25.4786212  55.5531119
  49.2987747  33.9467102  63.5624106  49.9997207  34.5803585  63.7153500
  48.8282862  34.2881834  62.8019745  57.4242143  32.2885052  51.8472013
  57.7001987  32.1741647  52.7565887  56.5546642  31.8902537  51.8084186
  57.3282575  18.3121818  58.8876762  56.4145654  18.5426045  59.0558969
  57.7575676  18.3960262  59.7390794  57.0989033  26.5011710  61.3876656
  56.4460483  26.7487617  60.7329109  57.4769413  25.6875848  61.0539133
  54.0596207  36.5371403  55.4904826  54.2418601  35.7193059  55.9532578
  54.8829193  36.7539095  55.0529716  54.3938372  35.4639588  52.7519875
  54.9226139  34.9532043  52.1390037  54.6566592  35.1482118  53.6165408
  44.8955465  33.4803457  60.4955208  45.4808902  32.7347145  60.6283112
  44.6980304  33.7907414  61.3791872  47.7494120  36.5154705  55.5117651
  47.0804496  37.0000832  55.0281691  47.6106990  36.7623925  56.4261029
  39.4873120  26.0509058  59.2159651  39.5257219  25.5172648  60.0096769
  38.9813413  25.5244263  58.5970629  51.8899389  38.5498448  62.1100309
  52.4417697  38.7130070  62.8749394  52.2305582  39.1402886  61.4380334
  46.8663882  20.8973598  62.7122194  46.9305209  21.7588429  62.2999591
  46.8031002  20.2847600  61.9794552  46.3416155  22.9696731  66.3595228
  46.9688194  22.5873808  66.9732752  45.4844074  22.7510933  66.7250920
  43.1181697  24.7773160  52.2913583  43.4135139  23.8683838  52.2380636
  42.2169733  24.7560899  51.9694585  46.6475944  22.8529156  58.2741131
  45.9262530  23.4665124  58.1348605  47.4369200  23.3886921  58.1957777
  49.4502258  20.1883583  64.5481783  49.9736660  20.4345879  65.3108092
  49.2314591  21.0203618  64.1284920  44.8469539  22.4587257  52.4152908
  44.5182245  21.5784636  52.2328014  45.2008910  22.4034926  53.3029297
  54.0949118  34.0942160  56.9247893  53.9474080  33.1658868  57.1055463
  54.9202611  34.1162251  56.4404969  47.9611362  22.7460227  52.7828386
  48.3007435  23.2746149  52.0606994  48.4083483  23.0840633  53.5586952
  50.6554803  21.1297278  62.2331454  50.3151623  20.3305091  62.6352134
  49.9493809  21.4298989  61.6608287  51.3071275  18.2146590  60.6858777
  52.1297344  17.7407069  60.5637667  51.5509338  18.9937074  61.1857463
  49.9479509  21.2434849  50.9821678  50.6687872  21.6216102  50.4785395
  49.3244813  21.9623726  51.0856656  54.0910632  21.9479998  51.9180011
  54.3074247  22.8304636  51.6168839  53.6104699  21.5566211  51.1885653
  48.8309854  24.9065711  58.4950755  48.6854434  25.2206014  59.3875037
  48.3535057  25.5250611  57.9421654  50.6906236  21.8968259  58.5431645
  50.6767805  21.0009352  58.2063943  51.4078665  21.9038923  59.1769931
  52.5432367  22.3305599  60.5884772  52.2850145  23.2522670  60.5869103
  52.0117408  21.9336034  61.2785236  57.4878556  35.4356386  53.3674858
  57.6615433  34.8702809  52.6148710  57.9807447  36.2357281  53.1854348
  43.3055516  27.4471055  61.4338416  42.7608984  28.2230863  61.5658691
  44.1834866  27.7941860  61.2757538  50.0943132  20.7782639  53.8119215
  50.2159044  19.8499286  54.0110102  49.8045175  20.7921325  52.8997530
  52.9634323  18.4637550  56.9485935  52.9856020  18.5276883  55.9937914
  53.3802382  17.6242058  57.1426441  63.3417947  28.1992809  54.9865157
  63.7849093  27.4500135  54.5884281  62.4644457  28.1902946  54.6038889
  58.4753728  34.7523151  50.4671756  59.1704633  35.3729843  50.6859071
  58.8176879  33.9018502  50.7424134  44.0921538  26.5740952  64.3268573
  43.3503274  26.7223587  64.9133204  43.7714282  26.8349217  63.4635323
  60.3745152  32.2022856  51.9959087  60.8996476  32.5410129  51.2708407
  60.2867504  31.2669872  51.8122221  52.0585812  38.2694840  56.3554340
  51.6190803  37.7771218  57.0487197  52.8093929  37.7267807  56.1146415
  44.5378151  34.4606380  56.3578968  45.3636171  34.1610152  55.9777611
  44.1872203  33.6914003  56.8068757  49.5059684  33.8132849  58.4276642
  48.8839694  33.1503554  58.1278869  50.1764551  33.8393981  57.7450289
  42.7386756  32.3792707  57.3167902  41.9018665  31.9514881  57.1351903
  42.7110402  32.5725150  58.2538693  49.5784212  22.2914637  68.0209148
  49.6272367  23.1676760  67.6386917  50.1206726  21.7492030  67.4480791
  49.0673191  32.3636772  51.9035102  49.2161312  33.0472236  51.2501775
  49.8739635  32.3441862  52.4184558  57.4740695  25.6679154  65.9302320
  58.3750558  25.5285619  65.6386318  57.5488670  25.8333609  66.8700497
  51.8083500  23.0446009  64.7755506  50.9386810  23.3379575  64.5038095
  52.0442981  23.6286454  65.4962770  62.8850812  29.6698048  57.3787605
  63.7197703  30.1087852  57.5425165  63.0209941  29.1936701  56.5595851
  59.9342318  27.2277782  63.3265093  60.4096439  27.4205429  62.5183944
  59.0107883  27.2836968  63.0808476  46.8225824  28.3901950  52.9096171
  46.5771866  27.4864280  53.1076381  46.9921739  28.3919100  51.9675649
  54.5122534  19.2625626  62.2920927  55.0304478  19.9986653  61.9667415
  54.1577667  19.5689619  63.1267686  46.0921472  24.1230307  50.4082332
  45.3990717  24.1974662  49.7522368  45.8473224  23.3590651  50.9303849
  54.7635128  15.6825909  57.8121823  55.0436882  15.0149098  58.4382250
  55.5485735  15.8755004  57.2996487  52.5668597  34.8584902  49.3746850
  51.9942564  35.4775090  48.9217321  53.1401391  35.4084264  49.9086771
  58.6343987  24.1043543  61.5593398  59.5861410  24.2041640  61.5805622
  58.4647437  23.3121811  62.0691483  56.6558366  21.1899126  61.7452799
  56.0608298  21.4704138  61.0499288  56.3708063  21.6793027  62.5169540
  55.7865857  35.1422053  50.5055432  56.7196530  35.0767614  50.7088307
  55.6989070  35.9778319  50.0469964  58.4153873  34.4587923  47.4659379
  58.3367505  34.1247787  48.3595137  59.2363540  34.9509691  47.4650852
  61.1132065  27.3249662  60.6735698  61.0808385  26.3865663  60.8595382
  61.7232688  27.4033699  59.9401523  52.9515395  26.1945715  46.7162902
  53.8974500  26.0651923  46.7851320  52.5729640  25.4560377  47.1932330
  61.2626553  24.1160706  60.7193981  60.7465602  23.3319162  60.5323910
  62.1466502  23.7879422  60.8840501  58.9237280  17.8601721  56.6789794
  58.7262101  17.5516809  57.5633126  59.5336986  18.5863360  56.8087724
  66.9308614  28.3865669  59.8141735  67.6612003  28.1250957  60.3749438
  66.3215560  27.6494391  59.8543803  65.0123912  26.5273532  60.4116186
  64.2857075  26.3929497  59.8032678  64.5971198  26.8350360  61.2172904
  51.1358313  24.1195692  46.6517787  50.2289768  23.8228804  46.7280501
  51.4134294  23.8225510  45.7852073  42.0536253  25.4402055  57.1016834
  41.7339037  24.5867363  56.8091208  41.5069681  25.6550633  57.8574801
  45.8316160  28.1564496  60.8186340  46.0502170  29.0881604  60.8374374
  46.2441934  27.7972470  61.6041144  52.7520378  18.6632581  52.8062029
  51.9421107  18.3179666  53.1817275  53.4404795  18.3540125  53.3949640
  54.6810927  17.7410628  54.4286325  55.2341965  18.1606082  55.0876348
  54.9181013  16.8146376  54.4709281  50.7044026  23.7297702  70.2089089
  50.6040753  24.6792059  70.1401180  50.4865568  23.4015941  69.3365159
  49.9057097  20.9782627  46.7929766  50.7676261  21.3037525  47.0525584
  50.0907441  20.1914123  46.2802832  41.9224513  29.0604967  59.0709955
  41.2287984  28.6458919  58.5579910  42.6697504  29.1025503  58.4743374
  58.0589734  19.8511153  53.9364989  57.4788403  20.5095957  53.5543042
  57.7925666  19.0288498  53.5252407  56.5093300  19.2516211  56.1386310
  57.0093078  19.3632746  55.3300629  57.1528908  18.9477264  56.7787118
  50.5675296  27.1594841  69.0254151  50.0842378  27.9595201  69.2318040
  50.6536235  27.1702785  68.0721595  43.8361255  28.9923220  56.9475970
  43.8131944  29.0910908  55.9957853  44.1461892  29.8388371  57.2693136
  46.4948633  31.0499375  61.0622585  47.4491887  31.0183318  60.9952516
  46.2961157  30.5889999  61.8772810  47.0848015  29.6200491  63.6293382
  47.9040904  30.1144570  63.6528219  47.3584823  28.7032459  63.6010950
  56.8414612  22.0111244  52.9921338  55.9540467  22.2960894  52.7741532
  57.2568601  21.8505007  52.1448615  60.1929148  22.0357765  56.7075677
  60.9689538  22.5254217  56.9800294  59.4677282  22.4615819  57.1647546
  62.6301706  22.7485384  57.7649618  63.2246197  22.5081120  57.0542926
  62.7028290  22.0292514  58.3923154  44.8498862  36.5918995  58.0792782
  44.7153330  35.8319396  57.5130780  44.4330924  37.3159895  57.6121571
  55.9857825  31.7755918  47.0869358  56.6893675  31.9805921  47.7027013
  55.2620474  32.3432680  47.3518441  56.8155635  27.5265780  53.2071628
  56.7590837  27.9834331  52.3679260  57.3683978  26.7656464  53.0294471
  60.6260441  23.3155511  54.0321747  60.3697376  22.9152147  54.8629955
  60.0013309  24.0299305  53.9071886  64.9372779  26.0551585  56.5393039
  64.3772337  26.1244774  57.3124601  64.3316283  25.8792569  55.8192535
  48.0067988  37.4888312  58.2911225  47.8900372  38.4333744  58.1889915
  47.1860434  37.1861873  58.6797024  57.8944523  32.2138448  49.1367818
  58.7290126  31.7819646  48.9545293  57.7328865  32.0420461  50.0644712
  57.5490415  28.7170561  50.5024157  57.4939219  28.5514832  49.5612601
  56.9236470  29.4246594  50.6586347  42.3382930  23.9538625  64.3285579
  42.9841793  23.4437579  64.8172804  42.1300081  24.6907307  64.9029004
  50.8586540  18.2178670  50.0809475  50.8465210  19.1620510  50.2377746
  51.7509962  18.0348815  49.7868937  49.0322502  38.1416574  61.5067153
  49.9349749  38.1740184  61.8233648  48.8059872  37.2117025  61.5213489
  50.7876104  36.8947560  58.1677232  49.8371735  36.8949422  58.0541604
  51.0908590  36.1480295  57.6513267  54.6738660  14.8121446  54.3355412
  53.9071055  14.2579933  54.4812095  55.0849365  14.8843315  55.1969564
  46.6780421  21.1006242  68.4260593  47.5411882  20.7443047  68.6363918
  46.1045831  20.7620137  69.1135998  66.0770066  40.4559552  56.3076203
  66.8633155  40.0378976  55.9566620  66.3408770  41.3605645  56.4757851
  71.4778493  40.3934786  57.2109181  72.2103665  39.8234003  57.4447010
  70.7217849  40.0056386  57.6515687  69.0003914  34.1056360  61.6703790
  68.6687238  34.9751771  61.4465005  68.4049527  33.7892644  62.3497820
  62.7360100  37.8451927  49.4033872  62.9034502  38.7132163  49.7704343
  62.5457269  38.0079209  48.4795161  56.3056726  42.4015976  57.9380196
  56.4349107  42.6550455  58.8519608  55.6254177  42.9943684  57.6184851
  68.4134387  40.7731058  51.2160873  69.3252243  41.0058444  51.0408570
  67.9044034  41.3568102  50.6535951  70.8993201  46.6911314  55.9618818
  70.2144239  47.0710215  55.4115851  70.9837050  47.3006641  56.6950766
  55.2526151  39.8737989  57.9831238  54.4625205  40.1295518  57.5071349
  55.7437399  40.6886327  58.0883279  57.2040897  40.2382568  54.9414715
  56.4072060  40.3501263  55.4598210  56.9766489  40.5769221  54.0755605
  53.5363854  40.1268480  60.4146229  53.7871893  41.0115490  60.6803805
  54.0723403  39.9473081  59.6421321  77.3595954  43.5581977  57.0821490
  76.6059662  42.9889375  56.9265495  77.4943495  43.5244641  58.0292125
  63.6484439  36.7884253  54.8532777  62.7926036  36.3991103  54.6738415
  64.0611391  36.8676214  53.9932562  65.1783586  34.3230596  59.2524336
  64.6748381  34.2860731  58.4392142  65.4714193  35.2323339  59.3120993
  71.0371602  44.6966907  51.7300712  70.2601045  44.3578066  51.2855874
  71.7163083  44.7019530  51.0555677  65.8523631  39.8161644  51.6207320
  65.5473767  40.1307793  52.4717463  66.8054073  39.8943064  51.6634653
  68.0868368  42.5245261  56.4371262  68.6000250  43.1575253  56.9392971
  68.7369592  41.9246456  56.0714622  59.3558378  38.6675995  49.6502770
  58.5195690  39.0050681  49.9712045  59.2163148  38.5324975  48.7129907
  61.3311458  33.5112783  54.3581954  60.6775871  33.1961800  53.7338569
  61.2891933  32.8888523  55.0841777  65.3484247  41.3986132  53.8132282
  66.0956066  41.9107529  53.5039404  65.6175836  41.0770185  54.6736676
  67.7963084  38.4343248  55.7951072  67.0585841  37.9220634  56.1261314
  68.0489857  37.9943630  54.9834349  67.8974711  31.2119500  56.3892841
  68.2033588  30.3516864  56.1018756  68.6227316  31.8037120  56.1891835
  54.1899067  41.6150187  54.7774439  53.9923467  41.0219547  54.0525505
  53.6345731  41.3102397  55.4950378  71.4360099  43.7110613  54.1923634
  71.2977998  43.9012209  53.2644823  71.0796318  44.4729996  54.6491685
  56.6845293  41.1414221  52.4615391  55.7542881  41.0798676  52.6785353
  56.7802765  40.6190173  51.6652032  56.6030842  37.6669034  55.0493633
  56.8637659  38.5814367  54.9402793  57.4248014  37.1993476  55.1990245
  59.2296758  38.5123222  46.8500677  58.3526224  38.3912023  46.4862924
  59.7054511  37.7209301  46.5979566  50.7498898  43.3000382  56.9442184
  51.4369938  42.9862112  56.3563200  50.5947027  44.2041747  56.6709436
  65.7257334  36.6744142  56.7397403  66.2226034  35.9214104  56.4198473
  64.9544316  36.7108459  56.1740612  66.8087115  45.4315829  54.3135826
  65.8743394  45.5517292  54.1440531  66.9863783  44.5288296  54.0495836
  70.1959666  41.2733149  54.8485861  70.6620118  42.1061140  54.7746163
  70.6467167  40.8078130  55.5531119  68.1676329  33.6413736  58.8876762
  67.2539409  33.8717962  59.0558969  68.5969430  33.7252180  59.7390794
  55.7349220  48.8095375  60.4955208  56.3202656  48.0639063  60.6283112
  55.5374058  49.1199332  61.3791872  50.3266874  41.3800975  59.2159651
  50.3650974  40.8464566  60.0096769  49.8207167  40.8536181  58.5970629
  53.9575452  40.1065078  52.2913583  54.2528893  39.1975756  52.2380636
  53.0563488  40.0852817  51.9694585  55.6863294  37.7879175  52.4152908
  55.3576000  36.9076554  52.2328014  56.0402664  37.7326844  53.3029297
  58.8005117  38.0752145  52.7828386  59.1401189  38.6038066  52.0606994
  59.2477237  38.4132551  53.5586952  60.7873264  36.5726767  50.9821678
  61.5081626  36.9508019  50.4785395  60.1638568  37.2915643  51.0856656
  64.9304387  37.2771916  51.9180011  65.1468001  38.1596553  51.6168839
  64.4498454  36.8858129  51.1885653  60.9336887  36.1074557  53.8119215
  61.0552798  35.1791203  54.0110102  60.6438929  36.1213243  52.8997530
  74.1811702  43.5284727  54.9865157  74.6242848  42.7792052  54.5884281
  73.3038212  43.5194863  54.6038889  73.7244566  44.9989965  57.3787605
  74.5591458  45.4379769  57.5425165  73.8603695  44.5228619  56.5595851
  56.9315226  39.4522225  50.4082332  56.2384471  39.5266580  49.7522368
  56.6866978  38.6882569  50.9303849  65.6028883  31.0117826  57.8121823
  65.8830637  30.3441015  58.4382250  66.3879490  31.2046922  57.2996487
  69.7631034  33.1893639  56.6789794  69.5655856  32.8808727  57.5633126
  70.3730740  33.9155278  56.8087724  77.7702369  43.7157587  59.8141735
  78.5005757  43.4542875  60.3749438  77.1609314  42.9786309  59.8543803
  61.9752067  39.4487609  46.6517787  61.0683522  39.1520722  46.7280501
  62.2528048  39.1517427  45.7852073  52.8930007  40.7693973  57.1016834
  52.5732792  39.9159281  56.8091208  52.3463436  40.9842551  57.8574801
  63.5914133  33.9924499  52.8062029  62.7814861  33.6471584  53.1817275
  64.2798550  33.6832043  53.3949640  65.5204681  33.0702546  54.4286325
  66.0735720  33.4897999  55.0876348  65.7574767  32.1438294  54.4709281
  60.7450852  36.3074545  46.7929766  61.6070016  36.6329443  47.0525584
  60.9301196  35.5206040  46.2802832  52.7618267  44.3896884  59.0709955
  52.0681739  43.9750837  58.5579910  53.5091258  44.4317421  58.4743374
  68.8983488  35.1803071  53.9364989  68.3182157  35.8387875  53.5543042
  68.6319421  34.3580416  53.5252407  67.3487055  34.5808129  56.1386310
  67.8486833  34.6924663  55.3300629  67.9922662  34.2769182  56.7787118
  67.6808366  37.3403161  52.9921338  66.7934221  37.6252812  52.7741532
  68.0962355  37.1796925  52.1448615  71.0322902  37.3649682  56.7075677
  71.8083292  37.8546135  56.9800294  70.3071036  37.7907737  57.1647546
  73.4695461  38.0777302  57.7649618  74.0639952  37.8373038  57.0542926
  73.5422045  37.3584432  58.3923154  67.6549390  42.8557697  53.2071628
  67.5984591  43.3126249  52.3679260  68.2077732  42.0948382  53.0294471
  71.4654196  38.6447429  54.0321747  71.2091130  38.2444065  54.8629955
  70.8407064  39.3591223  53.9071886  75.7766534  41.3843502  56.5393039
  75.2166092  41.4536692  57.3124601  75.1710037  41.2084487  55.8192535
  68.3884169  44.0462479  50.5024157  68.3332973  43.8806750  49.5612601
  67.7630224  44.7538511  50.6586347  61.6980295  33.5470588  50.0809475
  61.6858964  34.4912427  50.2377746  62.5903717  33.3640733  49.7868937
  65.5132414  30.1413364  54.3355412  64.7464810  29.5871851  54.4812095
  65.9243119  30.2135233  55.1969564  76.9163821  55.7851470  56.3076203
  77.7026910  55.3670893  55.9566620  77.1802525  56.6897562  56.4757851
  77.0873898  61.2224320  51.0064859  76.4519731  61.2958947  51.7185764
  76.7571304  61.8117919  50.3283939  82.3172248  55.7226703  57.2109181
  83.0497420  55.1525920  57.4447010  81.5611603  55.3348304  57.6515687
  73.9348367  58.1453945  54.4072523  73.5706575  57.6184566  55.1185445
  74.7915483  57.7552414  54.2339009  79.2528141  56.1022975  51.2160873
  80.1645998  56.3350362  51.0408570  78.7437789  56.6860019  50.6535951
  77.8597724  61.0848794  58.6074454  77.2306586  61.2494508  57.9050522
  77.4723386  61.4990403  59.3785418  81.7386956  62.0203232  55.9618818
  81.0537994  62.4002133  55.4115851  81.8230805  62.6298558  56.6950766
  72.3494572  56.9446354  52.6814105  73.0518615  57.3967398  53.1488031
  72.0175200  56.3030173  53.3093998  80.1083715  62.5435146  60.7336519
  80.9301159  62.1415333  60.4519201  80.1046118  62.4403380  61.6852635
  88.1989708  58.8873894  57.0821490  87.4453417  58.3181293  56.9265495
  88.3337249  58.8536559  58.0292125  76.9380800  47.2817859  61.2875103
  76.5945069  48.1719500  61.2114214  77.3059763  47.0919516  60.4244688
  76.9031083  57.2726470  49.7947538  76.3877706  58.0431074  50.0335926
  76.6308391  56.5991606  50.4180600  74.4878194  52.1176171  54.8532777
  73.6319790  51.7283021  54.6738415  74.9005145  52.1968131  53.9932562
  81.8765357  60.0258824  51.7300712  81.0994800  59.6869984  51.2855874
  82.5556838  60.0311448  51.0555677  76.6917386  55.1453562  51.6207320
  76.3867521  55.4599711  52.4717463  77.6447828  55.2234982  51.6634653
  75.1363818  61.3043785  53.2700274  74.6085179  60.5696545  52.9573511
  74.6351320  62.0818462  53.0240242  80.1156664  59.4992806  58.3867320
  79.4580338  60.1892067  58.4747448  80.9197063  59.8889238  58.7301306
  78.9262122  57.8537178  56.4371262  79.4394004  58.4867170  56.9392971
  79.5763346  57.2538374  56.0714622  72.1705213  48.8404700  54.3581954
  71.5169625  48.5253718  53.7338569  72.1285687  48.2180441  55.0841777
  76.1884497  67.8321503  49.1931933  75.5146195  68.1353199  49.8016891
  76.5750319  68.6350583  48.8437390  76.1878001  56.7278050  53.8132282
  76.9349820  57.2399447  53.5039404  76.4569591  56.4062102  54.6736676
  74.4604651  59.2236590  50.7959237  73.5515871  58.9395623  50.8931706
  74.4899735  59.6435669  49.9362543  79.6923919  62.8343180  54.5650404
  79.2386246  61.9934090  54.6215595  79.0617885  63.4704578  54.9025184
  78.6356838  53.7635166  55.7951072  77.8979595  53.2512552  56.1261314
  78.8883612  53.3235547  54.9834349  78.1356858  64.6719677  55.5000222
  78.4279832  65.2324734  54.7812588  78.6455478  64.9648238  56.2553381
  78.7368466  46.5411418  56.3892841  79.0427342  45.6808781  56.1018756
  79.4621070  47.1329038  56.1891835  82.2753854  59.0402531  54.1923634
  82.1371752  59.2304127  53.2644823  81.9190073  59.8021914  54.6491685
  82.3023233  61.1079058  59.2034905  82.7359740  61.0154347  60.0517959
  83.0154814  61.0836558  58.5654921  78.2791967  59.6229716  47.7279373
  77.6621137  58.8976544  47.6312425  77.8108455  60.3839076  47.3846447
  76.5651089  52.0036060  56.7397403  77.0619788  51.2506022  56.4198473
  75.7938070  52.0400376  56.1740612  84.4180846  57.7076425  58.3815694
  84.4070722  58.5901141  58.0109628  83.5498226  57.3547976  58.1870232
  75.9263343  66.8556494  62.7418535  76.6391315  67.4903959  62.6694436
  75.4353371  66.9520360  61.9258537  77.6480869  60.7607747  54.3135826
  76.7137148  60.8809209  54.1440531  77.8257538  59.8580214  54.0495836
  81.0353421  56.6025066  54.8485861  81.5013873  57.4353058  54.7746163
  81.4860921  56.1370048  55.5531119  79.1029652  62.9468888  51.8472013
  79.3789496  62.8325482  52.7565887  78.2334151  62.5486372  51.8084186
  79.0070084  48.9705653  58.8876762  78.0933163  49.2009880  59.0558969
  79.4363185  49.0544097  59.7390794  75.7383716  67.1955238  55.4904826
  75.9206110  66.3776894  55.9532578  76.5616702  67.4122931  55.0529716
  73.5686898  69.2082284  62.1100309  74.1205206  69.3713905  62.8749394
  73.9093091  69.7986722  61.4380334  76.7055285  67.1564259  59.0963991
  76.5806425  66.3553999  58.5874937  77.3634376  67.6510453  58.6077961
  78.7690194  64.9573279  60.7243541  77.8220529  64.8378631  60.6521868
  79.1172967  64.0695777  60.8069803  79.3770749  65.5754554  58.0112766
  80.3017296  65.3697416  57.8737217  79.2086052  65.3270955  58.9202108
  75.7698141  52.6063833  51.9180011  75.9861756  53.4888471  51.6168839
  75.2892208  52.2150047  51.1885653  79.1666065  66.0940222  53.3674858
  79.3402942  65.5286644  52.6148710  79.6594956  66.8941117  53.1854348
  74.6421832  49.1221385  56.9485935  74.6643529  49.1860718  55.9937914
  75.0589891  48.2825894  57.1426441  85.0205456  58.8576645  54.9865157
  85.4636602  58.1083970  54.5884281  84.1431966  58.8486781  54.6038889
  80.1541237  65.4106986  50.4671756  80.8492142  66.0313679  50.6859071
  80.4964388  64.5602337  50.7424134  82.0532661  62.8606692  51.9959087
  82.5783985  63.1993964  51.2708407  81.9655013  61.9253707  51.8122221
  73.7373321  68.9278675  56.3554340  73.2978312  68.4355054  57.0487197
  74.4881438  68.3851643  56.1146415  84.5638321  60.3281883  57.3787605
  85.3985212  60.7671687  57.5425165  84.6997450  59.8520536  56.5595851
  76.4422637  46.3409744  57.8121823  76.7224391  45.6732933  58.4382250
  77.2273244  46.5338840  57.2996487  77.4653366  65.8005888  50.5055432
  78.3984039  65.7351450  50.7088307  77.3776578  66.6362155  50.0469964
  80.0941382  65.1171758  47.4659379  80.0155014  64.7831622  48.3595137
  80.9151049  65.6093526  47.4650852  80.6024789  48.5185557  56.6789794
  80.4049610  48.2100645  57.5633126  81.2124494  49.2447196  56.8087724
  88.6096123  59.0449504  59.8141735  89.3399512  58.7834793  60.3749438
  88.0003069  58.3078226  59.8543803  76.3598436  48.3994463  54.4286325
  76.9129474  48.8189917  55.0876348  76.5968522  47.4730212  54.4709281
  79.7377243  50.5094989  53.9364989  79.1575912  51.1679793  53.5543042
  79.4713175  49.6872333  53.5252407  78.1880809  49.9100046  56.1386310
  78.6880587  50.0216581  55.3300629  78.8316417  49.6061099  56.7787118
  78.5202121  52.6695079  52.9921338  77.6327976  52.9544730  52.7741532
  78.9356110  52.5088842  52.1448615  81.8716657  52.6941600  56.7075677
  82.6477047  53.1838052  56.9800294  81.1464791  53.1199654  57.1647546
  77.6645334  62.4339754  47.0869358  78.3681184  62.6389756  47.7027013
  76.9407983  63.0016516  47.3518441  82.3047950  53.9739347  54.0321747
  82.0484885  53.5735982  54.8629955  81.6800818  54.6883141  53.9071886
  86.6160288  56.7135420  56.5393039  86.0559846  56.7828609  57.3124601
  86.0103792  56.5376405  55.8192535  79.5732032  62.8722283  49.1367818
  80.4077635  62.4403481  48.9545293  79.4116374  62.7004297  50.0644712
  79.2277924  59.3754396  50.5024157  79.1726727  59.2098668  49.5612601
  78.6023979  60.0830429  50.6586347  72.4663613  67.5531396  58.1677232
  71.5159244  67.5533257  58.0541604  72.7696099  66.8064130  57.6513267
  76.3526169  45.4705282  54.3355412  75.5858564  44.9163769  54.4812095
  76.7636874  45.5427151  55.1969564  88.2016307  73.3891934  59.2322994
  88.8394717  73.2698681  58.5286335  88.0837149  74.3372778  59.2910947
  85.0106013  73.3419362  59.1684519  84.6724524  73.2260427  58.2805054
  85.8795781  72.9410527  59.1485525  80.8692829  75.1954839  55.1581410
  80.3057694  75.1044775  54.3897698  80.7545224  74.3754743  55.6383903
  85.4925796  74.4954214  65.1270725  85.4814437  74.1007012  64.2551228
  85.6546435  73.7620286  65.7204496  78.4157261  76.6906030  57.9965631
  79.2078552  76.3496855  57.5811930  78.6553911  76.8001005  58.9167784
  86.4492387  78.8625806  50.4695875  85.7980367  79.4479887  50.0829889
  87.2436750  79.3932001  50.5290912  80.3748014  75.9514943  50.8683009
  81.1478890  75.4043930  50.7295885  80.7273413  76.8159193  51.0797471
  82.2133057  77.2791326  64.0749909  81.9222923  78.1836956  63.9596575
  82.8490041  77.3207853  64.7893978  83.1389264  74.6568174  60.6651268
  83.7352836  74.4324197  59.9508231  83.1964235  73.9152920  61.2676716
  82.7114292  72.1107609  48.5001459  82.9639813  71.5889131  47.7384922
  81.7738851  71.9473755  48.6028143  87.7557575  71.1143388  56.3076203
  88.5420664  70.6962811  55.9566620  88.0196279  72.0189480  56.4757851
  87.9267652  76.5516238  51.0064859  87.2913485  76.6250865  51.7185764
  87.5965059  77.1409837  50.3283939  93.1566002  71.0518621  57.2109181
  93.8891174  70.4817838  57.4447010  92.4005358  70.6640222  57.6515687
  82.4310581  74.0135715  50.7025834  82.3146839  73.3380619  51.3706919
  82.5412841  73.5268089  49.8857987  84.7742122  73.4745863  54.4072523
  84.4100329  72.9476484  55.1185445  85.6309238  73.0844332  54.2339009
  90.6791423  64.7640195  61.6703790  90.3474747  65.6335606  61.4465005
  90.0837036  64.4476479  62.3497820  84.4147609  68.5035762  49.4033872
  84.5822011  69.3715999  49.7704343  84.2244778  68.6663044  48.4795161
  87.1722942  76.9652741  61.0699702  86.8723665  77.8677780  60.9615510
  86.8274002  76.6984924  61.9220855  80.6235424  73.4166538  57.1036407
  79.6985920  73.2842752  57.3114099  80.8719837  74.1960757  57.6006349
  90.5720086  69.4835281  58.7497140  89.6636963  69.4150690  58.4555901
  90.5207682  69.9607226  59.5778965  84.3936830  70.9593420  50.3880539
  84.2736455  71.4050471  51.2266019  83.6989418  71.3078737  49.8294077
  77.9844235  73.0599812  57.9380196  78.1136616  73.3134290  58.8519608
  77.3041686  73.6527520  57.6184851  82.1543722  83.7297062  54.0370670
  82.0767752  84.6804887  54.1159151  81.5505365  83.3842934  54.6945596
  84.6460952  70.9024927  66.6932037  83.8694286  71.4618847  66.6834902
  85.2851515  71.3881710  67.2146907  92.4381732  67.6851720  60.5275014
  91.7956113  67.9784253  59.8814808  91.9336661  67.5704640  61.3328210
  90.0921896  71.4314893  51.2160873  91.0039752  71.6642280  51.0408570
  89.5831543  72.0151937  50.6535951  88.3762664  75.8539521  64.8522165
  88.7846020  75.4121931  64.1076798  87.6539925  75.2792148  65.1056358
  84.7293734  70.7912128  62.2255722  85.5754929  71.2151541  62.3690371
  84.6692371  70.1345752  62.9194285  88.6991478  76.4140711  58.6074454
  88.0700341  76.5786426  57.9050522  88.3117140  76.8282321  59.3785418
  92.5780710  77.3495149  55.9618818  91.8931748  77.7294051  55.4115851
  92.6624559  77.9590476  56.6950766  87.8793179  68.4516496  63.8836896
  87.6354111  69.2058556  63.3471172  88.1553110  68.8301843  64.7184143
  89.8331642  74.9955108  62.5614162  90.0448537  75.6386868  61.8848543
  89.7861390  74.1617425  62.0936092  87.4357871  67.6072929  59.4650734
  86.5742350  67.9054182  59.7567471  87.4620305  67.8243328  58.5331766
  84.2519440  76.1515119  55.8724539  84.7157786  76.4302822  55.0829162
  83.9876238  75.2498564  55.6897630  81.1443521  75.6986601  58.8104303
  81.7144878  76.1273869  58.1721787  81.7351633  75.4169186  59.5088488
  83.1888326  72.2738272  52.6814105  83.8912370  72.7259316  53.1488031
  82.8568955  71.6322091  53.3093998  81.6368688  70.8650028  67.0565314
  81.0067348  71.5466309  67.2900711  81.5304776  70.7533110  66.1118452
  76.9313660  70.5321824  57.9831238  76.1412714  70.7879353  57.5071349
  77.4224908  71.3470162  58.0883279  90.9477470  77.8727064  60.7336519
  91.7694913  77.4707251  60.4519201  90.9439873  77.7695298  61.6852635
  78.8828406  70.8966404  54.9414715  78.0859569  71.0085098  55.4598210
  78.6553998  71.2353056  54.0755605  84.7134073  77.4211107  62.8897229
  84.7778506  77.8831514  63.7255401  84.0044997  76.7908472  63.0179539
  75.2151363  70.7852315  60.4146229  75.4659402  71.6699325  60.6803805
  75.7510912  70.6056916  59.6421321  99.0383463  74.2165812  57.0821490
  98.2847171  73.6473210  56.9265495  99.1731004  74.1828477  58.0292125
  84.4282091  79.0879214  52.7576210  84.2927766  79.9330750  53.1861058
  84.9691903  79.2898492  51.9942144  77.8811488  76.6054652  53.3304135
  78.3936009  77.3997903  53.4809700  78.5334201  75.9080943  53.2637736
  79.6906373  79.7220409  55.4126888  79.8673001  80.6438373  55.2247872
  80.4863206  79.4078828  55.8421268  78.9758729  71.7685041  65.2889051
  78.8612245  70.8670298  65.5896150  78.1203247  72.0148737  64.9373868
  86.0550567  79.7102781  66.8876552  85.6114421  78.9239160  66.5697456
  86.7167781  79.8981931  66.2220443  80.8137688  81.2398583  61.4137230
  81.3645113  81.1115646  60.6414224  79.9749164  81.5393472  61.0632123
  88.1531805  79.9905581  64.9157953  88.1350281  80.8114462  64.4238222
  89.0751725  79.8659656  65.1408094  84.6104859  77.5049710  65.7581461
  85.1433196  76.7437999  65.5280769  84.0818941  77.2123362  66.5005616
  87.7774554  62.6109776  61.2875103  87.4338824  63.5011418  61.2114214
  88.1453517  62.4211434  60.4244688  75.8460405  74.9343307  54.1063705
  76.6835627  75.3440315  53.8897413  76.0238673  73.9942749  54.0763899
  87.7424837  72.6018387  49.7947538  87.2271461  73.3722992  50.0335926
  87.4702146  71.9283524  50.4180600  85.3271948  67.4468088  54.8532777
  84.4713544  67.0574939  54.6738415  85.7398900  67.5260049  53.9932562
  86.8571095  64.9814432  59.2524336  86.3535890  64.9444567  58.4392142
  87.1501702  65.8907174  59.3120993  83.1013981  65.0653161  58.2590518
  83.9666977  64.8695970  57.8996408  83.1691490  64.8363513  59.1859875
  92.7159111  75.3550742  51.7300712  91.9388554  75.0161902  51.2855874
  93.3950592  75.3603365  51.0555677  87.5311140  70.4745480  51.6207320
  87.2261276  70.7891629  52.4717463  88.4841582  70.5526899  51.6634653
  85.9757572  76.6335703  53.2700274  85.4478934  75.8988462  52.9573511
  85.4745075  77.4110379  53.0240242  90.9550418  74.8284723  58.3867320
  90.2974093  75.5183985  58.4747448  91.7590817  75.2181155  58.7301306
  80.7076300  67.2955369  55.6306885  81.2820052  67.0730551  54.8980078
  81.2947282  67.3644064  56.3835486  89.7655877  73.1829096  56.4371262
  90.2787759  73.8159088  56.9392971  90.4157101  72.5830292  56.0714622
  81.0345887  69.3259830  49.6502770  80.1983199  69.6634517  49.9712045
  80.8950656  69.1908810  48.7129907  83.0098967  64.1696618  54.3581954
  82.3563380  63.8545635  53.7338569  82.9679442  63.5472359  55.0841777
  84.1210172  74.4515913  46.2735247  83.2137234  74.2205167  46.4726396
  84.6181204  73.6553532  46.4609228  87.0278251  83.1613420  49.1931933
  86.3539950  83.4645117  49.8016891  87.4144073  83.9642501  48.8437390
  86.2436708  70.6578552  58.6829602  85.3259269  70.8793499  58.5251290
  86.6596851  70.7324862  57.8241309  87.0271756  72.0569967  53.8132282
  87.7743575  72.5691364  53.5039404  87.2963345  71.7354020  54.6736676
  85.2998406  74.5528508  50.7959237  84.3909625  74.2687541  50.8931706
  85.3293490  74.9727587  49.9362543  90.5317673  78.1635097  54.5650404
  90.0780000  77.3226007  54.6215595  89.9011640  78.7996496  54.9025184
  89.4750593  69.0927084  55.7951072  88.7373350  68.5804470  56.1261314
  89.7277366  68.6527465  54.9834349  88.9750612  80.0011594  55.5000222
  89.2673587  80.5616651  54.7812588  89.4849233  80.2940155  56.2553381
  89.5762220  61.8703336  56.3892841  89.8821097  61.0100699  56.1018756
  90.3014825  62.4620956  56.1891835  75.8686576  72.2734022  54.7774439
  75.6710976  71.6803383  54.0525505  75.3133240  71.9686232  55.4950378
  83.8483300  72.1657129  56.8969032  83.9031910  71.2130965  56.8211509
  83.0374502  72.3216568  57.3810330  84.9974494  76.0937252  48.1347315
  84.5593923  75.3773111  47.6752953  85.7384934  76.3213366  47.5732407
  81.7875660  70.7834188  54.6559411  80.9743525  71.0828359  55.0624603
  82.2834654  70.3889877  55.3733893  83.9384238  80.7791945  56.5893676
  83.8960416  81.0052792  55.6602208  84.8546936  80.5455320  56.7379477
  87.3849871  71.2476013  63.4874305  87.7399259  71.4747486  64.3468770
  88.0322003  71.5794390  62.8651560  93.1147608  74.3694449  54.1923634
  92.9765507  74.5596045  53.2644823  92.7583827  75.1313832  54.6491685
  81.2789734  68.3552544  60.2720646  81.9189114  68.2141303  59.5743609
  80.4467265  68.0687057  59.8959248  93.1416988  76.4370976  59.2034905
  93.5753495  76.3446265  60.0517959  93.8548569  76.4128476  58.5654921
  82.0550038  77.6554974  56.3855638  82.8490637  77.1605294  56.1838213
  81.3441731  77.1272837  56.0223344  86.8744883  80.0373070  60.7368006
  86.9281905  80.6064006  61.5045722  86.0059664  80.2074955  60.3722043
  78.3632802  71.7998056  52.4615391  77.4330390  71.7382512  52.6785353
  78.4590274  71.2774009  51.6652032  78.2818351  68.3252869  55.0493633
  78.5425168  69.2398202  54.9402793  79.1035523  67.8577311  55.1990245
  79.7543276  69.7390626  62.2192457  80.4266330  69.5307988  61.5705106
  78.9273063  69.5412712  61.7797689  94.0032538  76.4794676  61.7367791
  94.1968428  77.3840487  61.9827066  93.9033156  76.0202095  62.5706376
  85.6568848  66.3652567  64.2358118  85.0096763  67.0642517  64.1422594
  86.4269864  66.7988711  64.6034366  89.0647646  76.6301419  67.3108671
  88.9133153  76.4011971  66.3938755  89.0552326  77.5872021  67.3240016
  85.8332983  74.2033332  62.2954938  86.7625043  74.3544491  62.1223905
  85.4124013  74.2917353  61.4403584  84.6321314  78.2283996  60.0653475
  84.4932400  77.8602781  60.9379413  83.8435911  78.7431636  59.8937433
  85.2269466  83.3293093  51.4079012  85.4021222  82.8581136  52.2224635
  84.5402254  83.9558859  51.6360273  86.1826530  77.6065599  57.4542313
  85.8476362  77.5666369  58.3499963  85.6830475  76.9410315  56.9812723
  80.1570773  73.0133229  62.9794894  80.0190571  72.2813468  63.5806433
  81.0675697  72.9242129  62.6979082  89.1185721  74.9521633  47.7279373
  88.5014892  74.2268461  47.6312425  88.6502210  75.7130994  47.3846447
  82.7853074  72.7253188  62.4678574  83.4952693  72.0846381  62.4265192
  82.7422382  72.9766083  63.3904755  90.7739853  79.6620542  65.3885153
  90.7152399  78.9779762  64.7215736  91.1759371  80.4039532  64.9365779
  81.4982008  69.7118406  64.2874213  80.9619365  69.2609145  64.9395810
  80.9098717  69.8464315  63.5444678  79.7930552  86.4782456  58.1818872
  80.0327150  87.1100980  58.8597891  78.9499748  86.1270496  58.4684231
  80.9084267  69.1707058  46.8500677  80.0313733  69.0495858  46.4862924
  81.3842020  68.3793136  46.5979566  90.7757260  77.6260126  63.6199133
  89.8884039  77.2886047  63.7425532  91.3455811  76.8943157  63.8567898
  72.4286407  73.9584217  56.9442184  73.1157447  73.6445947  56.3563200
  72.2734536  74.8625582  56.6709436  77.2321129  68.8474414  61.3727208
  77.1479318  68.2400083  60.6377618  76.4103836  69.3383432  61.3736704
  84.3058413  82.2861578  60.5860376  84.2328585  83.0916549  61.0979681
  83.8635807  82.4853544  59.7608397  84.0948193  81.5233348  54.0963198
  83.3115715  82.0655028  54.1901422  84.7940938  82.0407328  54.4957439
  87.4044843  67.3327977  56.7397403  87.9013543  66.5797940  56.4198473
  86.6331825  67.3692294  56.1740612  95.2574601  73.0368343  58.3815694
  95.2464477  73.9193058  58.0109628  94.3891980  72.6839894  58.1870232
  86.7657097  82.1848412  62.7418535  87.4785069  82.8195877  62.6694436
  86.2747126  82.2812278  61.9258537  88.4874624  76.0899665  54.3135826
  87.5530903  76.2101127  54.1440531  88.6651292  75.1872131  54.0495836
  83.9879812  69.4745360  56.4669088  83.6177599  68.9216401  57.1549993
  84.4838904  68.8703494  55.9144088  91.8747175  71.9316984  54.8485861
  92.3407627  72.7644976  54.7746163  92.3254676  71.4661966  55.5531119
  81.8169011  79.9342855  63.5624106  82.5178470  80.5679338  63.7153500
  81.3464126  80.2757587  62.8019745  89.9423406  78.2760805  51.8472013
  90.2183250  78.1617400  52.7565887  89.0727905  77.8778290  51.8084186
  89.8463838  64.2997571  58.8876762  88.9326918  64.5301798  59.0558969
  90.2756939  64.3836015  59.7390794  89.6170297  72.4887463  61.3876656
  88.9641747  72.7363370  60.7329109  89.9950676  71.6751601  61.0539133
  86.5777470  82.5247156  55.4904826  86.7599865  81.7068812  55.9532578
  87.4010456  82.7414848  55.0529716  86.9119636  81.4515341  52.7519875
  87.4407402  80.9407796  52.1390037  87.1747855  81.1357871  53.6165408
  85.6657870  73.2307274  67.8742693  84.9898507  73.1301403  68.5445068
  86.4885503  73.0746488  68.3378690  77.4136729  79.4679210  60.4955208
  77.9990165  78.7222898  60.6283112  77.2161567  79.7783167  61.3791872
  80.2675384  82.5030458  55.5117651  79.5985759  82.9876586  55.0281691
  80.1288254  82.7499678  56.4261029  84.4080652  84.5374201  62.1100309
  84.9598960  84.7005823  62.8749394  84.7486846  85.1278639  61.4380334
  89.2591527  79.3635459  67.9648963  89.8031431  79.9765417  67.4703918
  88.6778372  79.9215037  68.4815976  75.6362961  70.7648913  52.2913583
  75.9316402  69.8559591  52.2380636  74.7350997  70.7436652  51.9694585
  87.5449040  82.4856177  59.0963991  87.4200179  81.6845917  58.5874937
  88.2028131  82.9802370  58.6077961  89.6083948  80.2865197  60.7243541
  88.6614284  80.1670548  60.6521868  89.9566721  79.3987695  60.8069803
  77.3650803  68.4463011  52.4152908  77.0363509  67.5660389  52.2328014
  77.7190173  68.3910679  53.3029297  86.6130381  80.0817913  56.9247893
  86.4655344  79.1534621  57.1055463  87.4383875  80.1038004  56.4404969
  80.4792626  68.7335980  52.7828386  80.8188698  69.2621902  52.0606994
  80.9264746  69.0716386  53.5586952  90.2164503  80.9046472  58.0112766
  91.1411051  80.6989333  57.8737217  90.0479807  80.6562873  58.9202108
  83.1736066  67.1173031  62.2331454  82.8332887  66.3180844  62.6352134
  82.4675073  67.4174742  61.6608287  83.8252538  64.2022343  60.6858777
  84.6478608  63.7282822  60.5637667  84.0690602  64.9812827  61.1857463
  82.4660773  67.2310602  50.9821678  83.1869135  67.6091855  50.4785395
  81.8426077  67.9499479  51.0856656  86.6091896  67.9355751  51.9180011
  86.8255510  68.8180389  51.6168839  86.1285963  67.5441964  51.1885653
  81.3491117  70.8941464  58.4950755  81.2035698  71.2081767  59.3875037
  80.8716321  71.5126364  57.9421654  83.2087500  67.8844012  58.5431645
  83.1949069  66.9885105  58.2063943  83.9259928  67.8914676  59.1769931
  85.0613631  68.3181352  60.5884772  84.8031408  69.2398423  60.5869103
  84.5298671  67.9211787  61.2785236  90.0059819  81.4232139  53.3674858
  90.1796697  80.8578562  52.6148710  90.4988711  82.2233034  53.1854348
  75.8236779  73.4346808  61.4338416  75.2790247  74.2106616  61.5658691
  76.7016129  73.7817613  61.2757538  82.6124396  66.7658392  53.8119215
  82.7340307  65.8375039  54.0110102  82.3226438  66.7797078  52.8997530
  85.4815586  64.4513303  56.9485935  85.5037283  64.5152636  55.9937914
  85.8983645  63.6117811  57.1426441  95.8599211  74.1868562  54.9865157
  96.3030357  73.4375888  54.5884281  94.9825721  74.1778699  54.6038889
  90.9934992  80.7398904  50.4671756  91.6885897  81.3605596  50.6859071
  91.3358142  79.8894255  50.7424134  76.6102801  72.5616705  64.3268573
  75.8684537  72.7099340  64.9133204  76.2895545  72.8224970  63.4635323
  92.8926415  78.1898609  51.9959087  93.4177739  78.5285882  51.2708407
  92.8048768  77.2545625  51.8122221  84.5546464  82.1032683  64.1248963
  84.8633590  81.8581830  64.9971663  85.3521946  82.3079321  63.6367834
  84.5767076  84.2570593  56.3554340  84.1372066  83.7646971  57.0487197
  85.3275193  83.7143560  56.1146415  77.0559415  80.4482133  56.3578968
  77.8817435  80.1485905  55.9777611  76.7053467  79.6789756  56.8068757
  82.0240948  79.8008602  58.4276642  81.4020957  79.1379307  58.1278869
  82.6945815  79.8269734  57.7450289  75.2568020  78.3668460  57.3167902
  74.4199928  77.9390634  57.1351903  75.2291665  78.5600903  58.2538693
  82.0965475  68.2790390  68.0209148  82.1453631  69.1552513  67.6386917
  82.6387990  67.7367783  67.4480791  92.5820321  78.8231513  67.3010285
  91.7915865  78.8055652  66.7614784  92.3453676  79.3619807  68.0559321
  92.7018196  75.6723979  64.6143013  92.7516201  75.5073987  65.5558536
  92.5932119  74.8051238  64.2240894  81.5854455  78.3512525  51.9035102
  81.7342575  79.0347989  51.2501775  82.3920898  78.3317615  52.4184558
  89.9921959  71.6554907  65.9302320  90.8931821  71.5161372  65.6386318
  90.0669933  71.8209362  66.8700497  84.3264764  69.0321762  64.7755506
  83.4568073  69.3255328  64.5038095  84.5624244  69.6162207  65.4962770
  94.2036393  78.0920921  64.8585035  93.9121201  78.4550901  65.6948496
  93.5908524  77.3787929  64.6798367  95.4032075  75.6573801  57.3787605
  96.2378967  76.0963605  57.5425165  95.5391204  75.1812454  56.5595851
  92.4523581  73.2153535  63.3265093  92.9277703  73.4081182  62.5183944
  91.5289147  73.2712721  63.0808476  79.3407088  74.3777703  52.9096171
  79.0953130  73.4740033  53.1076381  79.5103002  74.3794853  51.9675649
  87.0303798  65.2501379  62.2920927  87.5485742  65.9862406  61.9667415
  86.6758930  65.5565372  63.1267686  78.6102735  70.1106060  50.4082332
  77.9171980  70.1850415  49.7522368  78.3654487  69.3466404  50.9303849
  87.2816392  61.6701662  57.8121823  87.5618146  61.0024851  58.4382250
  88.0666999  61.8630757  57.2996487  85.0849860  80.8460655  49.3746850
  84.5123827  81.4650843  48.9217321  85.6582654  81.3960017  49.9086771
  91.1525250  70.0919296  61.5593398  92.1042673  70.1917393  61.5805622
  90.9828701  69.2997564  62.0691483  89.1739630  67.1774879  61.7452799
  88.5789562  67.4579892  61.0499288  88.8889326  67.6668780  62.5169540
  88.3047120  81.1297806  50.5055432  89.2377793  81.0643367  50.7088307
  88.2170333  81.9654072  50.0469964  90.9335137  80.4463676  47.4659379
  90.8548768  80.1123540  48.3595137  91.7544804  80.9385444  47.4650852
  93.6313328  73.3125415  60.6735698  93.5989648  72.3741416  60.8595382
  94.2413952  73.3909452  59.9401523  85.4696659  72.1821468  46.7162902
  86.4155764  72.0527676  46.7851320  85.0910904  71.4436130  47.1932330
  93.7807816  70.1036459  60.7193981  93.2646865  69.3194915  60.5323910
  94.6647765  69.7755175  60.8840501  91.4418543  63.8477474  56.6789794
  91.2443365  63.5392562  57.5633126  92.0518249  64.5739113  56.8087724
  99.4489878  74.3741422  59.8141735 100.1793266  74.1126710  60.3749438
  98.8396823  73.6370144  59.8543803  97.5305175  72.5149285  60.4116186
  96.8038339  72.3805250  59.8032678  97.1152462  72.8226113  61.2172904
  85.3535351  76.2339214  68.1763559  86.2738361  76.4117813  68.3703605
  85.3184934  75.2895260  68.0243258  83.6539576  70.1071445  46.6517787
  82.7471031  69.8104557  46.7280501  83.9315557  69.8101263  45.7852073
  74.5717516  71.4277808  57.1016834  74.2520301  70.5743116  56.8091208
  74.0250945  71.6426386  57.8574801  78.3497424  74.1440249  60.8186340
  78.5683434  75.0757357  60.8374374  78.7623198  73.7848223  61.6041144
  85.2701642  64.6508334  52.8062029  84.4602370  64.3055419  53.1817275
  85.9586059  64.3415878  53.3949640  87.1992190  63.7286381  54.4286325
  87.7523229  64.1481835  55.0876348  87.4362276  62.8022129  54.4709281
  83.2225289  69.7173455  70.2089089  83.1222016  70.6667812  70.1401180
  83.0046831  69.3891694  69.3365159  82.4238361  66.9658380  46.7929766
  83.2857525  67.2913278  47.0525584  82.6088705  66.1789876  46.2802832
  74.4405776  75.0480720  59.0709955  73.7469248  74.6334672  58.5579910
  75.1878767  75.0901256  58.4743374  90.5770997  65.8386906  53.9364989
  89.9969666  66.4971710  53.5543042  90.3106930  65.0164251  53.5252407
  89.0274563  65.2391964  56.1386310  89.5274342  65.3508499  55.3300629
  89.6710171  64.9353017  56.7787118  83.0856559  73.1470594  69.0254151
  82.6023641  73.9470954  69.2318040  83.1717498  73.1578539  68.0721595
  76.3542519  74.9798973  56.9475970  76.3313207  75.0786661  55.9957853
  76.6643155  75.8264124  57.2693136  79.0129897  77.0375128  61.0622585
  79.9673150  77.0059071  60.9952516  78.8142420  76.5765752  61.8772810
  79.6029279  75.6076244  63.6293382  80.4222168  76.1020323  63.6528219
  79.8766087  74.6908213  63.6010950  89.3595875  67.9986997  52.9921338
  88.4721730  68.2836647  52.7741532  89.7749864  67.8380760  52.1448615
  92.7110411  68.0233518  56.7075677  93.4870801  68.5129970  56.9800294
  91.9858545  68.4491572  57.1647546  95.1482970  68.7361137  57.7649618
  95.7427461  68.4956873  57.0542926  95.2209554  68.0168267  58.3923154
  77.3680126  82.5794748  58.0792782  77.2334594  81.8195149  57.5130780
  76.9512188  83.3035648  57.6121571  88.5039089  77.7631671  47.0869358
  89.2074939  77.9681674  47.7027013  87.7801737  78.3308433  47.3518441
  89.3336899  73.5141533  53.2071628  89.2772100  73.9710084  52.3679260
  89.8865241  72.7532217  53.0294471  93.1441705  69.3031264  54.0321747
  92.8878639  68.9027900  54.8629955  92.5194573  70.0175058  53.9071886
  97.4554043  72.0427338  56.5393039  96.8953601  72.1120527  57.3124601
  96.8497546  71.8668322  55.8192535  80.5249251  83.4764065  58.2911225
  80.4081636  84.4209497  58.1889915  79.7041698  83.1737626  58.6797024
  90.4125786  78.2014201  49.1367818  91.2471390  77.7695399  48.9545293
  90.2510129  78.0296214  50.0644712  90.0671678  74.7046314  50.5024157
  90.0120482  74.5390585  49.5612601  89.4417733  75.4122347  50.6586347
  74.8564193  69.9414378  64.3285579  75.5023057  69.4313332  64.8172804
  74.6481344  70.6783060  64.9029004  87.3817585  77.0095226  69.8277720
  88.2508745  77.1835878  69.4664355  86.9024337  77.8289643  69.7053449
  83.3767804  64.2054423  50.0809475  83.3646473  65.1496263  50.2377746
  84.2691226  64.0224568  49.7868937  81.5503766  84.1292327  61.5067153
  82.4531012  84.1615937  61.8233648  81.3241136  83.1992778  61.5213489
  83.3057368  82.8823313  58.1677232  82.3552999  82.8825175  58.0541604
  83.6089854  82.1356048  57.6513267  87.1919923  60.7997200  54.3355412
  86.4252319  60.2455686  54.4812095  87.6030628  60.8719068  55.1969564
  99.0410061  88.7183852  59.2322994  99.6788471  88.5990599  58.5286335
  98.9230904  89.6664696  59.2910947  95.8499767  88.6711280  59.1684519
  95.5118279  88.5552344  58.2805054  96.7189536  88.2702445  59.1485525
  91.7086583  90.5246756  55.1581410  91.1451448  90.4336693  54.3897698
  91.5938978  89.7046661  55.6383903  96.3319550  89.8246132  65.1270725
  96.3208191  89.4298930  64.2551228  96.4940190  89.0912204  65.7204496
  89.2551015  92.0197948  57.9965631  90.0472307  91.6788772  57.5811930
  89.4947665  92.1292923  58.9167784  97.2886142  94.1917724  50.4695875
  96.6374122  94.7771804  50.0829889  98.0830505  94.7223919  50.5290912
  91.2141769  91.2806861  50.8683009  91.9872645  90.7335848  50.7295885
  91.5667168  92.1451110  51.0797471  93.0526812  92.6083243  64.0749909
  92.7616677  93.5128874  63.9596575  93.6883796  92.6499771  64.7893978
  93.9783018  89.9860092  60.6651268  94.5746591  89.7616114  59.9508231
  94.0357990  89.2444837  61.2676716  93.5508047  87.4399527  48.5001459
  93.8033567  86.9181048  47.7384922  92.6132606  87.2765673  48.6028143
  98.5951330  86.4435306  56.3076203  99.3814419  86.0254729  55.9566620
  98.8590034  87.3481398  56.4757851  98.7661407  91.8808156  51.0064859
  98.1307240  91.9542782  51.7185764  98.4358813  92.4701755  50.3283939
 103.9959757  86.3810539  57.2109181 104.7284929  85.8109756  57.4447010
 103.2399112  85.9932139  57.6515687  93.2704336  89.3427633  50.7025834
  93.1540594  88.6672537  51.3706919  93.3806595  88.8560007  49.8857987
  95.6135876  88.8037780  54.4072523  95.2494084  88.2768401  55.1185445
  96.4702992  88.4136249  54.2339009 101.5185177  80.0932113  61.6703790
 101.1868502  80.9627524  61.4465005 100.9230790  79.7768397  62.3497820
  95.2541363  83.8327680  49.4033872  95.4215766  84.7007916  49.7704343
  95.0638532  83.9954962  48.4795161  98.0116697  92.2944659  61.0699702
  97.7117420  93.1969698  60.9615510  97.6667756  92.0276842  61.9220855
  91.4629178  88.7458456  57.1036407  90.5379675  88.6134670  57.3114099
  91.7113591  89.5252675  57.6006349 101.4113840  84.8127199  58.7497140
 100.5030718  84.7442607  58.4555901 101.3601436  85.2899144  59.5778965
  95.2330584  86.2885337  50.3880539  95.1130209  86.7342388  51.2266019
  94.5383173  86.6370655  49.8294077  88.8237989  88.3891729  57.9380196
  88.9530370  88.6426208  58.8519608  88.1435440  88.9819437  57.6184851
  92.9937476  99.0588979  54.0370670  92.9161506 100.0096804  54.1159151
  92.3899120  98.7134852  54.6945596  95.4854706  86.2316845  66.6932037
  94.7088040  86.7910765  66.6834902  96.1245269  86.7173628  67.2146907
 103.2775487  83.0143637  60.5275014 102.6349867  83.3076171  59.8814808
 102.7730415  82.8996558  61.3328210 100.9315650  86.7606811  51.2160873
 101.8433507  86.9934197  51.0408570 100.4225298  87.3443855  50.6535951
  93.7401078  89.0402298  66.2550004  94.4815763  89.5787342  65.9784828
  93.0338064  89.6668587  66.4121556  99.2156418  91.1831438  64.8522165
  99.6239774  90.7413849  64.1076798  98.4933680  90.6084066  65.1056358
  95.5687488  86.1204045  62.2255722  96.4148683  86.5443459  62.3690371
  95.5086126  85.4637670  62.9194285  99.5385233  91.7432629  58.6074454
  98.9094095  91.9078343  57.9050522  99.1510895  92.1574239  59.3785418
 103.4174465  92.6787067  55.9618818 102.7325503  93.0585968  55.4115851
 103.5018314  93.2882394  56.6950766  98.7186933  83.7808414  63.8836896
  98.4747865  84.5350474  63.3471172  98.9946864  84.1593761  64.7184143
 100.6725396  90.3247026  62.5614162 100.8842291  90.9678786  61.8848543
 100.6255145  89.4909342  62.0936092  98.2751625  82.9364847  59.4650734
  97.4136104  83.2346100  59.7567471  98.3014060  83.1535245  58.5331766
  95.0913195  91.4807037  55.8724539  95.5551540  91.7594740  55.0829162
  94.8269993  90.5790482  55.6897630  91.9837276  91.0278519  58.8104303
  92.5538633  91.4565787  58.1721787  92.5745388  90.7461103  59.5088488
  94.0282081  87.6030190  52.6814105  94.7306124  88.0551233  53.1488031
  93.6962709  86.9614008  53.3093998  92.4762442  86.1941946  67.0565314
  91.8461103  86.8758227  67.2900711  92.3698530  86.0825028  66.1118452
  87.7707415  85.8613742  57.9831238  86.9806469  86.1171271  57.5071349
  88.2618662  86.6762080  58.0883279 101.7871224  93.2018981  60.7336519
 102.6088668  92.7999169  60.4519201 101.7833627  93.0987216  61.6852635
  89.7222160  86.2258321  54.9414715  88.9253323  86.3377016  55.4598210
  89.4947752  86.5644974  54.0755605  95.5527828  92.7503025  62.8897229
  95.6172260  93.2123432  63.7255401  94.8438752  92.1200390  63.0179539
  86.0545118  86.1144233  60.4146229  86.3053156  86.9991243  60.6803805
  86.5904666  85.9348834  59.6421321 109.8777217  89.5457730  57.0821490
 109.1240926  88.9765128  56.9265495 110.0124758  89.5120394  58.0292125
  95.2675845  94.4171132  52.7576210  95.1321520  95.2622668  53.1861058
  95.8085658  94.6190410  51.9942144  91.7543185  80.4962712  69.4190565
  91.3610131  79.9428911  70.0938209  92.5709325  80.8073290  69.8097083
  88.7205243  91.9346570  53.3304135  89.2329763  92.7289820  53.4809700
  89.3727956  91.2372861  53.2637736  90.5300127  95.0512326  55.4126888
  90.7066756  95.9730291  55.2247872  91.3256961  94.7370746  55.8421268
  94.6711146  81.9120591  67.0110822  95.4120859  82.5127744  66.9315284
  94.9029069  81.1698229  66.4528864  89.8152484  87.0976958  65.2889051
  89.7005999  86.1962216  65.5896150  88.9597002  87.3440655  64.9373868
  96.8944322  95.0394699  66.8876552  96.4508176  94.2531077  66.5697456
  97.5561535  95.2273849  66.2220443  91.6531443  96.5690500  61.4137230
  92.2038868  96.4407564  60.6414224  90.8142919  96.8685389  61.0632123
  98.9925560  95.3197499  64.9157953  98.9744035  96.1406380  64.4238222
  99.9145480  95.1951574  65.1408094  95.4498614  92.8341628  65.7581461
  95.9826951  92.0729916  65.5280769  94.9212695  92.5415280  66.5005616
  98.6168309  77.9401694  61.2875103  98.2732578  78.8303336  61.2114214
  98.9847271  77.7503352  60.4244688  86.6854159  90.2635224  54.1063705
  87.5229381  90.6732233  53.8897413  86.8632427  89.3234667  54.0763899
  98.5818592  87.9310305  49.7947538  98.0665215  88.7014910  50.0335926
  98.3095900  87.2575441  50.4180600  96.1665703  82.7760006  54.8532777
  95.3107299  82.3866856  54.6738415  96.5792654  82.8551967  53.9932562
  97.6964849  80.3106349  59.2524336  97.1929645  80.2736484  58.4392142
  97.9895456  81.2199092  59.3120993  93.9407735  80.3945079  58.2590518
  94.8060732  80.1987888  57.8996408  94.0085244  80.1655431  59.1859875
 103.5552866  90.6842660  51.7300712 102.7782308  90.3453819  51.2855874
 104.2344347  90.6895283  51.0555677  98.3704895  85.8037397  51.6207320
  98.0655030  86.1183546  52.4717463  99.3235337  85.8818817  51.6634653
  96.8151327  91.9627621  53.2700274  96.2872688  91.2280380  52.9573511
  96.3138829  92.7402297  53.0240242 101.7944173  90.1576641  58.3867320
 101.1367847  90.8475902  58.4747448 102.5984572  90.5473073  58.7301306
  91.5470054  82.6247287  55.6306885  92.1213806  82.4022468  54.8980078
  92.1341037  82.6935981  56.3835486 100.6049631  88.5121014  56.4371262
 101.1181513  89.1451006  56.9392971 101.2550855  87.9122209  56.0714622
  91.8739641  84.6551748  49.6502770  91.0376954  84.9926434  49.9712045
  91.7344411  84.5200728  48.7129907  93.8492722  79.4988536  54.3581954
  93.1957134  79.1837553  53.7338569  93.8073196  78.8764276  55.0841777
  94.9603927  89.7807831  46.2735247  94.0530989  89.5497084  46.4726396
  95.4574959  88.9845450  46.4609228  97.8672006  98.4905338  49.1931933
  97.1933704  98.7937035  49.8016891  98.2537828  99.2934418  48.8437390
  97.0830462  85.9870469  58.6829602  96.1653024  86.2085416  58.5251290
  97.4990606  86.0616780  57.8241309  97.8665510  87.3861885  53.8132282
  98.6137329  87.8983282  53.5039404  98.1357100  87.0645938  54.6736676
  96.1392160  89.8820426  50.7959237  95.2303379  89.5979458  50.8931706
  96.1687244  90.3019504  49.9362543 101.3711428  93.4927015  54.5650404
 100.9173755  92.6517925  54.6215595 100.7405394  94.1288414  54.9025184
 100.3144347  84.4219001  55.7951072  99.5767104  83.9096387  56.1261314
 100.5671121  83.9819383  54.9834349  99.8144367  95.3303512  55.5000222
 100.1067341  95.8908569  54.7812588 100.3242987  95.6232073  56.2553381
 100.4155975  77.1995253  56.3892841 100.7214851  76.3392617  56.1018756
 101.1408579  77.7912873  56.1891835  86.7080331  87.6025940  54.7774439
  86.5104730  87.0095301  54.0525505  86.1526995  87.2978150  55.4950378
  94.6877054  87.4949046  56.8969032  94.7425664  86.5422883  56.8211509
  93.8768256  87.6508485  57.3810330  95.8368248  91.4229169  48.1347315
  95.3987678  90.7065028  47.6752953  96.5778689  91.6505284  47.5732407
  92.6269414  86.1126106  54.6559411  91.8137280  86.4120277  55.0624603
  93.1228408  85.7181795  55.3733893  94.7777992  96.1083863  56.5893676
  94.7354171  96.3344709  55.6602208  95.6940691  95.8747238  56.7379477
  98.2243626  86.5767930  63.4874305  98.5793014  86.8039404  64.3468770
  98.8715757  86.9086307  62.8651560 103.9541363  89.6986366  54.1923634
 103.8159261  89.8887962  53.2644823 103.5977582  90.4605749  54.6491685
  92.1183489  83.6844462  60.2720646  92.7582868  83.5433221  59.5743609
  91.2861020  83.3978975  59.8959248 103.9810742  91.7662893  59.2034905
 104.4147249  91.6738182  60.0517959 104.6942323  91.7420394  58.5654921
  92.8943793  92.9846892  56.3855638  93.6884391  92.4897212  56.1838213
  92.1835485  92.4564755  56.0223344  97.7138637  95.3664987  60.7368006
  97.7675660  95.9355924  61.5045722  96.8453419  95.5366873  60.3722043
  89.2026556  87.1289974  52.4615391  88.2724144  87.0674429  52.6785353
  89.2984028  86.6065926  51.6652032  89.1212105  83.6544787  55.0493633
  89.3818923  84.5690120  54.9402793  89.9429278  83.1869229  55.1990245
  90.5937031  85.0682544  62.2192457  91.2660084  84.8599906  61.5705106
  89.7666817  84.8704630  61.7797689 104.8426292  91.8086594  61.7367791
 105.0362182  92.7132405  61.9827066 104.7426910  91.3494013  62.5706376
  96.4962603  81.6944485  64.2358118  95.8490518  82.3934434  64.1422594
  97.2663618  82.1280629  64.6034366  99.9041401  91.9593337  67.3108671
  99.7526907  91.7303888  66.3938755  99.8946080  92.9163938  67.3240016
  96.6726737  89.5325250  62.2954938  97.6018797  89.6836409  62.1223905
  96.2517767  89.6209270  61.4403584  95.4715069  93.5575914  60.0653475
  95.3326155  93.1894698  60.9379413  94.6829665  94.0723553  59.8937433
  96.0663221  98.6585010  51.4079012  96.2414977  98.1873054  52.2224635
  95.3796009  99.2850777  51.6360273  97.0220284  92.9357517  57.4542313
  96.6870117  92.8958287  58.3499963  96.5224230  92.2702233  56.9812723
  90.9964528  88.3425147  62.9794894  90.8584326  87.6105386  63.5806433
  91.9069451  88.2534047  62.6979082  99.9579476  90.2813551  47.7279373
  99.3408646  89.5560379  47.6312425  99.4895964  91.0422911  47.3846447
  93.6246829  88.0545106  62.4678574  94.3346447  87.4138298  62.4265192
  93.5816137  88.3058001  63.3904755 101.6133607  94.9912459  65.3885153
 101.5546153  94.3071679  64.7215736 102.0153126  95.7331449  64.9365779
  92.3375763  85.0410324  64.2874213  91.8013120  84.5901062  64.9395810
  91.7492471  85.1756233  63.5444678  90.6324306 101.8074373  58.1818872
  90.8720904 102.4392897  58.8597891  89.7893503 101.4562413  58.4684231
  91.7478022  84.4998975  46.8500677  90.8707488  84.3787776  46.4862924
  92.2235775  83.7085054  46.5979566 101.6151015  92.9552043  63.6199133
 100.7277793  92.6177965  63.7425532 102.1849566  92.2235075  63.8567898
  83.2680162  89.2876135  56.9442184  83.9551202  88.9737865  56.3563200
  83.1128290  90.1917500  56.6709436  88.0714884  84.1766332  61.3727208
  87.9873073  83.5692001  60.6377618  87.2497590  84.6675350  61.3736704
  95.1452168  97.6153496  60.5860376  95.0722339  98.4208467  61.0979681
  94.7029561  97.8145461  59.7608397  94.9341948  96.8525266  54.0963198
  94.1509469  97.3946946  54.1901422  95.6334693  97.3699245  54.4957439
  98.2438598  82.6619895  56.7397403  98.7407297  81.9089857  56.4198473
  97.4725579  82.6984212  56.1740612 106.0968355  88.3660261  58.3815694
 106.0858231  89.2484976  58.0109628 105.2285735  88.0131811  58.1870232
  97.6050851  97.5140330  62.7418535  98.3178824  98.1487794  62.6694436
  97.1140880  97.6104196  61.9258537  99.3268378  91.4191582  54.3135826
  98.3924657  91.5393045  54.1440531  99.5045047  90.5164049  54.0495836
  94.8273566  84.8037278  56.4669088  94.4571354  84.2508318  57.1549993
  95.3232659  84.1995412  55.9144088 102.7140930  87.2608902  54.8485861
 103.1801382  88.0936893  54.7746163 103.1648430  86.7953883  55.5531119
  92.6562765  95.2634773  63.5624106  93.3572225  95.8971256  63.7153500
  92.1857880  95.6049505  62.8019745 100.7817161  93.6052723  51.8472013
 101.0577005  93.4909317  52.7565887  99.9121660  93.2070208  51.8084186
 100.6857592  79.6289489  58.8876762  99.7720672  79.8593715  59.0558969
 101.1150694  79.7127933  59.7390794 100.4564051  87.8179381  61.3876656
  99.8035501  88.0655288  60.7329109 100.8344431  87.0043519  61.0539133
  97.4171225  97.8539074  55.4904826  97.5993619  97.0360730  55.9532578
  98.2404211  98.0706766  55.0529716  97.7513390  96.7807259  52.7519875
  98.2801157  96.2699713  52.1390037  98.0141610  96.4649789  53.6165408
  96.5051624  88.5599192  67.8742693  95.8292261  88.4593321  68.5445068
  97.3279258  88.4038405  68.3378690  88.2530483  94.7971128  60.4955208
  88.8383920  94.0514816  60.6283112  88.0555322  95.1075085  61.3791872
  91.1069138  97.8322376  55.5117651  90.4379514  98.3168503  55.0281691
  90.9682008  98.0791596  56.4261029  82.8448138  87.3676728  59.2159651
  82.8832237  86.8340319  60.0096769  82.3388431  86.8411934  58.5970629
  95.2474407  99.8666119  62.1100309  95.7992715 100.0297741  62.8749394
  95.5880600 100.4570557  61.4380334  90.2238900  82.2141269  62.7122194
  90.2880227  83.0756100  62.2999591  90.1606020  81.6015271  61.9794552
  89.6991173  84.2864401  66.3595228  90.3263211  83.9041479  66.9732752
  88.8419092  84.0678603  66.7250920 100.0985281  94.6927377  67.9648963
 100.6425185  95.3057335  67.4703918  99.5172126  95.2506955  68.4815976
  86.4756715  86.0940831  52.2913583  86.7710156  85.1851509  52.2380636
  85.5744751  86.0728570  51.9694585  98.3842794  97.8148095  59.0963991
  98.2593934  97.0137834  58.5874937  99.0421885  98.3094288  58.6077961
  90.0050962  84.1696827  58.2741131  89.2837548  84.7832795  58.1348605
  90.7944218  84.7054592  58.1957777 100.4477703  95.6157115  60.7243541
  99.5008038  95.4962466  60.6521868 100.7960476  94.7279613  60.8069803
  92.8077276  81.5051254  64.5481783  93.3311678  81.7513550  65.3108092
  92.5889609  82.3371288  64.1284920  88.2044557  83.7754928  52.4152908
  87.8757263  82.8952307  52.2328014  88.5583928  83.7202597  53.3029297
  97.4524136  95.4109831  56.9247893  97.3049098  94.4826538  57.1055463
  98.2777629  95.4329922  56.4404969  91.3186380  84.0627898  52.7828386
  91.6582453  84.5913819  52.0606994  91.7658501  84.4008304  53.5586952
 101.0558258  96.2338390  58.0112766 101.9804805  96.0281251  57.8737217
 100.8873561  95.9854791  58.9202108  94.0129821  82.4464949  62.2331454
  93.6726641  81.6472762  62.6352134  93.3068827  82.7466660  61.6608287
  94.6646293  79.5314261  60.6858777  95.4872362  79.0574739  60.5637667
  94.9084356  80.3104745  61.1857463  93.3054527  82.5602520  50.9821678
  94.0262890  82.9383772  50.4785395  92.6819831  83.2791396  51.0856656
  97.4485650  83.2647669  51.9180011  97.6649265  84.1472306  51.6168839
  96.9679717  82.8733882  51.1885653  92.1884872  86.2233382  58.4950755
  92.0429452  86.5373685  59.3875037  91.7110075  86.8418282  57.9421654
  94.0481254  83.2135930  58.5431645  94.0342823  82.3177023  58.2063943
  94.7653683  83.2206594  59.1769931  95.9007385  83.6473270  60.5884772
  95.6425163  84.5690341  60.5869103  95.3692426  83.2503705  61.2785236
 100.8453574  96.7524057  53.3674858 101.0190451  96.1870480  52.6148710
 101.3382465  97.5524952  53.1854348  86.6630534  88.7638726  61.4338416
  86.1184002  89.5398534  61.5658691  87.5409884  89.1109531  61.2757538
  93.4518150  82.0950310  53.8119215  93.5734062  81.1666956  54.0110102
  93.1620193  82.1088996  52.8997530  96.3209341  79.7805220  56.9485935
  96.3431038  79.8444554  55.9937914  96.7377400  78.9409729  57.1426441
 106.6992965  89.5160480  54.9865157 107.1424111  88.7667805  54.5884281
 105.8219475  89.5070616  54.6038889 101.8328746  96.0690821  50.4671756
 102.5279651  96.6897514  50.6859071 102.1751897  95.2186173  50.7424134
  87.4496556  87.8908622  64.3268573  86.7078292  88.0391258  64.9133204
  87.1289300  88.1516888  63.4635323 103.7320170  93.5190527  51.9959087
 104.2571494  93.8577800  51.2708407 103.6442522  92.5837542  51.8122221
  95.3940218  97.4324601  64.1248963  95.7027345  97.1873747  64.9971663
  96.1915700  97.6371239  63.6367834  95.4160830  99.5862510  56.3554340
  94.9765821  99.0938889  57.0487197  96.1668947  99.0435478  56.1146415
  87.8953169  95.7774051  56.3578968  88.7211189  95.4777823  55.9777611
  87.5447221  95.0081674  56.8068757  92.8634702  95.1300519  58.4276642
  92.2414712  94.4671224  58.1278869  93.5339569  95.1561651  57.7450289
  86.0961774  93.6960378  57.3167902  85.2593683  93.2682552  57.1351903
  86.0685420  93.8892821  58.2538693  92.9359230  83.6082307  68.0209148
  92.9847385  84.4844430  67.6386917  93.4781744  83.0659700  67.4480791
 103.4214076  94.1523431  67.3010285 102.6309619  94.1347570  66.7614784
 103.1847430  94.6911724  68.0559321 103.5411951  91.0015897  64.6143013
 103.5909956  90.8365904  65.5558536 103.4325874  90.1343156  64.2240894
  92.4248209  93.6804443  51.9035102  92.5736330  94.3639907  51.2501775
  93.2314653  93.6609533  52.4184558 100.8315713  86.9846825  65.9302320
 101.7325576  86.8453290  65.6386318 100.9063688  87.1501280  66.8700497
  95.1658518  84.3613680  64.7755506  94.2961828  84.6547246  64.5038095
  95.4017999  84.9454125  65.4962770 105.0430147  93.4212839  64.8585035
 104.7514956  93.7842819  65.6948496 104.4302279  92.7079847  64.6798367
 106.2425830  90.9865718  57.3787605 107.0772721  91.4255522  57.5425165
 106.3784959  90.5104372  56.5595851 103.2917336  88.5445453  63.3265093
 103.7671457  88.7373099  62.5183944 102.3682901  88.6004639  63.0808476
  90.1800842  89.7069620  52.9096171  89.9346884  88.8031950  53.1076381
  90.3496757  89.7086771  51.9675649  97.8697552  80.5793297  62.2920927
  98.3879496  81.3154324  61.9667415  97.5152685  80.8857290  63.1267686
  89.4496490  85.4397978  50.4082332  88.7565735  85.5142333  49.7522368
  89.2048242  84.6758322  50.9303849  98.1210146  76.9993579  57.8121823
  98.4011900  76.3316768  58.4382250  98.9060753  77.1922675  57.2996487
  95.9243615  96.1752573  49.3746850  95.3517582  96.7942760  48.9217321
  96.4976409  96.7251935  49.9086771 101.9919005  85.4211213  61.5593398
 102.9436428  85.5209311  61.5805622 101.8222455  84.6289482  62.0691483
 100.0133384  82.5066796  61.7452799  99.4183316  82.7871809  61.0499288
  99.7283081  82.9960697  62.5169540  99.1440875  96.4589723  50.5055432
 100.0771548  96.3935285  50.7088307  99.0564087  97.2945990  50.0469964
 101.7728891  95.7755594  47.4659379 101.6942523  95.4415457  48.3595137
 102.5938558  96.2677362  47.4650852 104.4707082  88.6417333  60.6735698
 104.4383403  87.7033334  60.8595382 105.0807706  88.7201370  59.9401523
  96.3090413  87.5113386  46.7162902  97.2549518  87.3819594  46.7851320
  95.9304658  86.7728048  47.1932330 104.6201571  85.4328376  60.7193981
 104.1040620  84.6486833  60.5323910 105.5041519  85.1047093  60.8840501
 102.2812298  79.1769392  56.6789794 102.0837119  78.8684480  57.5633126
 102.8912003  79.9031031  56.8087724 110.2883632  89.7033340  59.8141735
 111.0187021  89.4418628  60.3749438 109.6790578  88.9662062  59.8543803
 108.3698929  87.8441202  60.4116186 107.6432093  87.7097167  59.8032678
 107.9546216  88.1518031  61.2172904  96.1929106  91.5631132  68.1763559
  97.1132115  91.7409731  68.3703605  96.1578689  90.6187177  68.0243258
  94.4933331  85.4363362  46.6517787  93.5864786  85.1396475  46.7280501
  94.7709312  85.1393180  45.7852073  85.4111271  86.7569726  57.1016834
  85.0914055  85.9035034  56.8091208  84.8644699  86.9718304  57.8574801
  89.1891178  89.4732167  60.8186340  89.4077188  90.4049275  60.8374374
  89.6016952  89.1140141  61.6041144  96.1095396  79.9800252  52.8062029
  95.2996125  79.6347337  53.1817275  96.7979813  79.6707796  53.3949640
  98.0385945  79.0578299  54.4286325  98.5916983  79.4773752  55.0876348
  98.2756031  78.1314047  54.4709281  94.0619044  85.0465372  70.2089089
  93.9615771  85.9959729  70.1401180  93.8440586  84.7183611  69.3365159
  93.2632115  82.2950298  46.7929766  94.1251279  82.6205196  47.0525584
  93.4482459  81.5081793  46.2802832  85.2799531  90.3772637  59.0709955
  84.5863002  89.9626590  58.5579910  86.0272522  90.4193174  58.4743374
 101.4164752  81.1678824  53.9364989 100.8363421  81.8263628  53.5543042
 101.1500684  80.3456169  53.5252407  99.8668318  80.5683882  56.1386310
 100.3668096  80.6800416  55.3300629 100.5103926  80.2644935  56.7787118
  93.9250314  88.4762511  69.0254151  93.4417396  89.2762871  69.2318040
  94.0111253  88.4870456  68.0721595  87.1936273  90.3090891  56.9475970
  87.1706962  90.4078578  55.9957853  87.5036910  91.1556042  57.2693136
  89.8523651  92.3667046  61.0622585  90.8066905  92.3350988  60.9952516
  89.6536175  91.9057670  61.8772810  90.4423033  90.9368162  63.6293382
  91.2615922  91.4312241  63.6528219  90.7159841  90.0200130  63.6010950
 100.1989630  83.3278914  52.9921338  99.3115485  83.6128565  52.7741532
 100.6143619  83.1672678  52.1448615 103.5504166  83.3525435  56.7075677
 104.3264556  83.8421888  56.9800294 102.8252300  83.7783490  57.1647546
 105.9876724  84.0653055  57.7649618 106.5821215  83.8248791  57.0542926
 106.0603308  83.3460185  58.3923154  88.2073880  97.9086666  58.0792782
  88.0728348  97.1487066  57.5130780  87.7905942  98.6327565  57.6121571
  99.3432843  93.0923589  47.0869358 100.0468693  93.2973592  47.7027013
  98.6195492  93.6600351  47.3518441 100.1730653  88.8433450  53.2071628
 100.1165855  89.3002002  52.3679260 100.7258996  88.0824135  53.0294471
 103.9835459  84.6323182  54.0321747 103.7272394  84.2319818  54.8629955
 103.3588327  85.3466976  53.9071886 108.2947797  87.3719255  56.5393039
 107.7347355  87.4412445  57.3124601 107.6891301  87.1960240  55.8192535
  91.3643006  98.8055983  58.2911225  91.2475390  99.7501415  58.1889915
  90.5435452  98.5029544  58.6797024 101.2519540  93.5306118  49.1367818
 102.0865144  93.0987317  48.9545293 101.0903883  93.3588132  50.0644712
 100.9065433  90.0338232  50.5024157 100.8514236  89.8682503  49.5612601
 100.2811488  90.7414264  50.6586347  85.6957948  85.2706296  64.3285579
  86.3416811  84.7605250  64.8172804  85.4875099  86.0074978  64.9029004
  98.2211340  92.3387143  69.8277720  99.0902499  92.5127796  69.4664355
  97.7418091  93.1581560  69.7053449  94.2161558  79.5346341  50.0809475
  94.2040228  80.4788180  50.2377746  95.1084980  79.3516486  49.7868937
  92.3897520  99.4584244  61.5067153  93.2924767  99.4907855  61.8233648
  92.1634890  98.5284695  61.5213489  94.1451122  98.2115231  58.1677232
  93.1946753  98.2117093  58.0541604  94.4483608  97.4647966  57.6513267
  98.0313678  76.1289117  54.3355412  97.2646073  75.5747604  54.4812095
  98.4424383  76.2010986  55.1969564  90.0355439  82.4173913  68.4260593
  90.8986900  82.0610718  68.6363918  89.4620849  82.0787808  69.1135998
 106.6893522 104.0003197  59.1684519 106.3512033 103.8844262  58.2805054
 107.5583290 103.5994363  59.1485525 102.5480338 105.8538674  55.1581410
 101.9845203 105.7628611  54.3897698 102.4332733 105.0338578  55.6383903
 107.1713305 105.1538049  65.1270725 107.1601946 104.7590847  64.2551228
 107.3333944 104.4204122  65.7204496 100.0944769 107.3489865  57.9965631
 100.8866061 107.0080690  57.5811930 100.3341420 107.4584841  58.9167784
 102.0535523 106.6098779  50.8683009 102.8266399 106.0627766  50.7295885
 102.4060922 107.4743028  51.0797471 104.8176773 105.3152010  60.6651268
 105.4140345 105.0908032  59.9508231 104.8751744 104.5736755  61.2676716
 104.3901801 102.7691445  48.5001459 104.6427322 102.2472966  47.7384922
 103.4526360 102.6057590  48.6028143 109.4345084 101.7727223  56.3076203
 110.2208173 101.3546646  55.9566620 109.6983788 102.6773315  56.4757851
 104.1098090 104.6719551  50.7025834 103.9934348 103.9964454  51.3706919
 104.2200350 104.1851925  49.8857987 106.4529631 104.1329698  54.4072523
 106.0887838 103.6060319  55.1185445 107.3096747 103.7428167  54.2339009
 112.3578932  95.4224031  61.6703790 112.0262256  96.2919441  61.4465005
 111.7624545  95.1060315  62.3497820 106.0935118  99.1619598  49.4033872
 106.2609520 100.0299834  49.7704343 105.9032287  99.3246879  48.4795161
 102.3022933 104.0750373  57.1036407 101.3773429 103.9426587  57.3114099
 102.5507346 104.8544593  57.6006349 112.2507595 100.1419117  58.7497140
 111.3424472 100.0734525  58.4555901 112.1995191 100.6191062  59.5778965
 106.0724339 101.6177255  50.3880539 105.9523964 102.0634306  51.2266019
 105.3776927 101.9662573  49.8294077  99.6631744 103.7183647  57.9380196
  99.7924125 103.9718126  58.8519608  98.9829195 104.3111355  57.6184851
 106.3248461 101.5608762  66.6932037 105.5481795 102.1202682  66.6834902
 106.9639024 102.0465545  67.2146907 114.1169241  98.3435555  60.5275014
 113.4743622  98.6368088  59.8814808 113.6124170  98.2288475  61.3328210
 104.5794833 104.3694216  66.2550004 105.3209517 104.9079260  65.9784828
 103.8731818 104.9960504  66.4121556 106.4081243 101.4495963  62.2255722
 107.2542438 101.8735376  62.3690371 106.3479880 100.7929587  62.9194285
 109.5580688  99.1100331  63.8836896 109.3141620  99.8642392  63.3471172
 109.8340618  99.4885679  64.7184143 109.1145380  98.2656764  59.4650734
 108.2529859  98.5638018  59.7567471 109.1407814  98.4827163  58.5331766
 102.8231030 106.3570436  58.8104303 103.3932387 106.7857705  58.1721787
 103.4139142 106.0753021  59.5088488 104.8675835 102.9322107  52.6814105
 105.5699879 103.3843151  53.1488031 104.5356464 102.2905926  53.3093998
 103.3156197 101.5233864  67.0565314 102.6854857 102.2050145  67.2900711
 103.2092285 101.4116945  66.1118452  98.6101169 101.1905660  57.9831238
  97.8200223 101.4463188  57.5071349  99.1012417 102.0053998  58.0883279
 100.5615915 101.5550239  54.9414715  99.7647078 101.6668933  55.4598210
 100.3341507 101.8936891  54.0755605  96.8938872 101.4436150  60.4146229
  97.1446911 102.3283160  60.6803805  97.4298421 101.2640752  59.6421321
 102.5936939  95.8254630  69.4190565 102.2003885  95.2720828  70.0938209
 103.4103080  96.1365208  69.8097083  99.5598997 107.2638488  53.3304135
 100.0723518 108.0581738  53.4809700 100.2121710 106.5664778  53.2637736
 105.5104900  97.2412509  67.0110822 106.2514614  97.8419662  66.9315284
 105.7422823  96.4990147  66.4528864 100.6546238 102.4268876  65.2889051
 100.5399754 101.5254133  65.5896150  99.7990756 102.6732573  64.9373868
 109.4562063  93.2693612  61.2875103 109.1126333  94.1595253  61.2114214
 109.8241026  93.0795269  60.4244688  97.5247914 105.5927142  54.1063705
  98.3623136 106.0024151  53.8897413  97.7026182 104.6526584  54.0763899
 107.0059457  98.1051924  54.8532777 106.1501053  97.7158774  54.6738415
 107.4186409  98.1843884  53.9932562 108.5358604  95.6398267  59.2524336
 108.0323399  95.6028402  58.4392142 108.8289211  96.5491010  59.3120993
 104.7801490  95.7236997  58.2590518 105.6454486  95.5279805  57.8996408
 104.8478999  95.4947348  59.1859875 109.2098649 101.1329315  51.6207320
 108.9048785 101.4475464  52.4717463 110.1629091 101.2110735  51.6634653
 102.3863809  97.9539205  55.6306885 102.9607561  97.7314386  54.8980078
 102.9734791  98.0227899  56.3835486 102.7133396  99.9843666  49.6502770
 101.8770708 100.3218352  49.9712045 102.5738165  99.8492645  48.7129907
 104.6886476  94.8280453  54.3581954 104.0350889  94.5129471  53.7338569
 104.6466951  94.2056194  55.0841777 105.7997681 105.1099748  46.2735247
 104.8924743 104.8789002  46.4726396 106.2968713 104.3137368  46.4609228
 107.9224217 101.3162387  58.6829602 107.0046778 101.5377334  58.5251290
 108.3384360 101.3908697  57.8241309 108.7059265 102.7153803  53.8132282
 109.4531083 103.2275200  53.5039404 108.9750854 102.3937855  54.6736676
 111.1538102  99.7510919  55.7951072 110.4160858  99.2388305  56.1261314
 111.4064875  99.3111300  54.9834349 111.2549729  92.5287171  56.3892841
 111.5608606  91.6684534  56.1018756 111.9802334  93.1204791  56.1891835
  97.5474085 102.9317857  54.7774439  97.3498485 102.3387218  54.0525505
  96.9920749 102.6270068  55.4950378 105.5270809 102.8240964  56.8969032
 105.5819419 101.8714800  56.8211509 104.7162011 102.9800403  57.3810330
 103.4663169 101.4418024  54.6559411 102.6531034 101.7412194  55.0624603
 103.9622163 101.0473712  55.3733893 109.0637380 101.9059848  63.4874305
 109.4186768 102.1331321  64.3468770 109.7109512 102.2378225  62.8651560
 102.9577243  99.0136379  60.2720646 103.5976623  98.8725138  59.5743609
 102.1254774  98.7270893  59.8959248 100.0420311 102.4581891  52.4615391
  99.1117899 102.3966347  52.6785353 100.1377783 101.9357844  51.6652032
  99.9605860  98.9836704  55.0493633 100.2212677  99.8982037  54.9402793
 100.7823032  98.5161147  55.1990245 101.4330785 100.3974461  62.2192457
 102.1053839 100.1891824  61.5705106 100.6060572 100.1996547  61.7797689
 107.3356357  97.0236402  64.2358118 106.6884272  97.7226352  64.1422594
 108.1057373  97.4572546  64.6034366 101.8358282 103.6717064  62.9794894
 101.6978080 102.9397303  63.5806433 102.7463206 103.5825964  62.6979082
 104.4640583 103.3837024  62.4678574 105.1740202 102.7430216  62.4265192
 104.4209891 103.6349919  63.3904755 103.1769517 100.3702242  64.2874213
 102.6406874  99.9192980  64.9395810 102.5886226 100.5048150  63.5444678
 102.5871776  99.8290893  46.8500677 101.7101242  99.7079694  46.4862924
 103.0629529  99.0376971  46.5979566  94.1073916 104.6168053  56.9442184
  94.7944956 104.3029783  56.3563200  93.9522045 105.5209417  56.6709436
  98.9108638  99.5058249  61.3727208  98.8266827  98.8983919  60.6377618
  98.0891345  99.9967268  61.3736704 109.0832352  97.9911813  56.7397403
 109.5801052  97.2381775  56.4198473 108.3119334  98.0276129  56.1740612
 105.6667321 100.1329196  56.4669088 105.2965108  99.5800236  57.1549993
 106.1626413  99.5287329  55.9144088 111.5251347  94.9581406  58.8876762
 110.6114427  95.1885633  59.0558969 111.9544448  95.0419850  59.7390794
 107.3445379 103.8891109  67.8742693 106.6686016 103.7885239  68.5445068
 108.1673012 103.7330323  68.3378690  99.0924238 110.1263046  60.4955208
  99.6777674 109.3806734  60.6283112  98.8949076 110.4367003  61.3791872
  93.6841892 102.6968646  59.2159651  93.7225992 102.1632237  60.0096769
  93.1782185 102.1703852  58.5970629 101.0632655  97.5433187  62.7122194
 101.1273981  98.4048017  62.2999591 100.9999775  96.9307188  61.9794552
 100.5384927  99.6156319  66.3595228 101.1656966  99.2333396  66.9732752
  99.6812846  99.3970521  66.7250920  97.3150470 101.4232748  52.2913583
  97.6103911 100.5143427  52.2380636  96.4138506 101.4020488  51.9694585
 100.8444717  99.4988745  58.2741131 100.1231303 100.1124712  58.1348605
 101.6337973 100.0346510  58.1957777 103.6471030  96.8343171  64.5481783
 104.1705432  97.0805468  65.3108092 103.4283364  97.6663206  64.1284920
  99.0438311  99.1046846  52.4152908  98.7151018  98.2244225  52.2328014
  99.3977682  99.0494515  53.3029297 102.1580135  99.3919816  52.7828386
 102.4976207  99.9205737  52.0606994 102.6052255  99.7300222  53.5586952
 104.8523575  97.7756866  62.2331454 104.5120396  96.9764679  62.6352134
 104.1462582  98.0758577  61.6608287 105.5040047  94.8606179  60.6858777
 106.3266117  94.3866657  60.5637667 105.7478111  95.6396663  61.1857463
 104.1448282  97.8894437  50.9821678 104.8656644  98.2675690  50.4785395
 103.5213586  98.6083314  51.0856656 108.2879405  98.5939586  51.9180011
 108.5043019  99.4764224  51.6168839 107.8073472  98.2025800  51.1885653
 103.0278626 101.5525299  58.4950755 102.8823207 101.8665603  59.3875037
 102.5503830 102.1710200  57.9421654 104.8875009  98.5427847  58.5431645
 104.8736578  97.6468941  58.2063943 105.6047437  98.5498511  59.1769931
 106.7401140  98.9765188  60.5884772 106.4818917  99.8982258  60.5869103
 106.2086180  98.5795622  61.2785236  97.5024288 104.0930644  61.4338416
  96.9577756 104.8690452  61.5658691  98.3803638 104.4401448  61.2757538
 104.2911905  97.4242228  53.8119215 104.4127816  96.4958874  54.0110102
 104.0013947  97.4380914  52.8997530 107.1603095  95.1097138  56.9485935
 107.1824792  95.1736471  55.9937914 107.5771154  94.2701647  57.1426441
  98.2890310 103.2200540  64.3268573  97.5472046 103.3683175  64.9133204
  97.9683054 103.4808806  63.4635323  96.9355529 109.0252295  57.3167902
  96.0987437 108.5974470  57.1351903  96.9079174 109.2184739  58.2538693
 103.7752984  98.9374225  68.0209148 103.8241140  99.8136348  67.6386917
 104.3175499  98.3951618  67.4480791 106.0052273  99.6905597  64.7755506
 105.1355582  99.9839164  64.5038095 106.2411753 100.2746042  65.4962770
 101.0194597 105.0361538  52.9096171 100.7740639 104.1323868  53.1076381
 101.1890511 105.0378688  51.9675649 108.7091307  95.9085214  62.2920927
 109.2273251  96.6446241  61.9667415 108.3546439  96.2149208  63.1267686
 100.2890244 100.7689896  50.4082332  99.5959489 100.8434251  49.7522368
 100.0441996 100.0050239  50.9303849 108.9603901  92.3285497  57.8121823
 109.2405655  91.6608686  58.4382250 109.7454508  92.5214593  57.2996487
 110.8527139  97.8358714  61.7452799 110.2577071  98.1163727  61.0499288
 110.5676835  98.3252615  62.5169540 107.1484168 102.8405304  46.7162902
 108.0943273 102.7111512  46.7851320 106.7698413 102.1019966  47.1932330
 113.1206052  94.5061310  56.6789794 112.9230874  94.1976398  57.5633126
 113.7305758  95.2322949  56.8087724 105.3327085 100.7655280  46.6517787
 104.4258540 100.4688393  46.7280501 105.6103066 100.4685098  45.7852073
  96.2505025 102.0861643  57.1016834  95.9307810 101.2326952  56.8091208
  95.7038454 102.3010222  57.8574801 100.0284933 104.8024084  60.8186340
 100.2470943 105.7341192  60.8374374 100.4410707 104.4432059  61.6041144
 106.9489151  95.3092170  52.8062029 106.1389879  94.9639255  53.1817275
 107.6373568  94.9999713  53.3949640 108.8779699  94.3870217  54.4286325
 109.4310738  94.8065670  55.0876348 109.1149785  93.4605965  54.4709281
 104.9012798 100.3757290  70.2089089 104.8009525 101.3251647  70.1401180
 104.6834340 100.0475529  69.3365159 104.1025870  97.6242215  46.7929766
 104.9645034  97.9497114  47.0525584 104.2876214  96.8373711  46.2802832
  96.1193285 105.7064555  59.0709955  95.4256757 105.2918508  58.5579910
  96.8666276 105.7485091  58.4743374 112.2558506  96.4970742  53.9364989
 111.6757175  97.1555546  53.5543042 111.9894439  95.6748086  53.5252407
 110.7062072  95.8975799  56.1386310 111.2061851  96.0092334  55.3300629
 111.3497680  95.5936852  56.7787118 104.7644068 103.8054429  69.0254151
 104.2811150 104.6054789  69.2318040 104.8505007 103.8162374  68.0721595
  98.0330028 105.6382809  56.9475970  98.0100716 105.7370496  55.9957853
  98.3430664 106.4847959  57.2693136 100.6917406 107.6958964  61.0622585
 101.6460659 107.6642906  60.9952516 100.4929929 107.2349587  61.8772810
 101.2816788 106.2660080  63.6293382 102.1009677 106.7604158  63.6528219
 101.5553596 105.3492048  63.6010950 111.0383384  98.6570832  52.9921338
 110.1509239  98.9420483  52.7741532 111.4537373  98.4964595  52.1448615
 114.3897920  98.6817353  56.7075677 115.1658310  99.1713805  56.9800294
 113.6646054  99.1075407  57.1647546  96.5351702 100.5998214  64.3285579
  97.1810566 100.0897168  64.8172804  96.3268853 101.3366895  64.9029004
 105.0555313  94.8638258  50.0809475 105.0433982  95.8080098  50.2377746
 105.9478734  94.6808404  49.7868937 108.8707432  91.4581035  54.3355412
 108.1039828  90.9039522  54.4812095 109.2818137  91.5302904  55.1969564
 100.8749193  97.7465831  68.4260593 101.7380655  97.3902636  68.6363918
 100.3014604  97.4079726  69.1135998  43.0917371  -5.4479742  37.1941182
  42.4405350  -4.8625661  36.8075195  43.8861733  -4.9173547  37.2536219
  37.0172998  -8.3590605  37.5928316  37.7903874  -8.9061618  37.4541192
  37.3698397  -7.4946355  37.8042777  38.8558040  -7.0314222  50.7995215
  38.5647906  -6.1268592  50.6841882  39.4915025  -6.9897695  51.5139285
  44.5692636  -7.7589310  37.7310166  43.9338469  -7.6854683  38.4431071
  44.2390042  -7.1695711  37.0529245  43.8147925  -7.3452807  47.7945009
  43.5148648  -6.4427768  47.6860816  43.4698985  -7.6120624  48.6466162
  38.7968705  -0.5808487  40.7615977  38.7192735   0.3699338  40.8404457
  38.1930349  -0.9262614  41.4190903  40.8944423  -8.1590429  42.5969846
  41.3582769  -7.8802726  41.8074469  40.6301222  -9.0606984  42.4142937
  37.7868505  -8.6118947  45.5349609  38.3569862  -8.1831679  44.8967094
  38.3776616  -8.8936362  46.2333795  41.3559056  -6.8894441  49.6142536
  41.4203489  -6.4274034  50.4500708  40.6469980  -7.5197076  49.7424846
  41.0707074  -5.2226334  39.4821516  40.9352749  -4.3774798  39.9106364
  41.6116887  -5.0207056  38.7187450  36.3331356  -4.5885139  42.1372195
  36.5097985  -3.6667175  41.9493179  37.1288190  -4.9026720  42.5666574
  42.6975551  -4.6002767  53.6121858  42.2539405  -5.3866389  53.2942763
  43.3592764  -4.4123617  52.9465749  37.4562672  -3.0706966  48.1382537
  38.0070097  -3.1989902  47.3659531  36.6174148  -2.7712077  47.7877430
  44.7956789  -4.3199967  51.6403260  44.7775264  -3.4991086  51.1483529
  45.7176709  -4.4445892  51.8653401  41.2529843  -6.8055838  52.4826768
  41.7858180  -7.5667550  52.2526076  40.7243924  -7.0982186  53.2250923
  42.6182555  -7.6769845  39.9945580  42.0903917  -8.4117086  39.6818818
  42.1170058  -6.8995169  39.7485548  43.6703234  -1.1492128  35.9177239
  42.9964933  -0.8460431  36.5262197  44.0569056  -0.3463047  35.5682696
  47.1742656  -6.1470451  41.2895711  46.7204984  -6.9879541  41.3460901
  46.5436623  -5.5109052  41.6270491  45.6175596  -4.3093954  42.2245529
  45.9098570  -3.7488897  41.5057895  46.1274216  -4.0165393  42.9798688
  41.6399477  -8.2168296  34.8592622  41.2018907  -8.9332438  34.3998259
  42.3809918  -7.9892182  34.2977713  40.5809221  -3.5313603  43.3138982
  40.5385400  -3.3052757  42.3847514  41.4971920  -3.7650228  43.4624783
  38.6975022  -6.6550574  43.1100945  39.4915620  -7.1500254  42.9083520
  37.9866714  -7.1832711  42.7468650  43.5169866  -4.2732478  47.4613313
  43.5706888  -3.7041542  48.2291028  42.6484648  -4.1030593  47.0967350
  41.2746298  -6.0821552  46.7898782  41.1357383  -6.4502767  47.6624720
  40.4860894  -5.5673912  46.6182740  41.8694450  -0.9812455  38.1324319
  42.0446205  -1.4524412  38.9469941  41.1827238  -0.3546689  38.3605579
  42.8251513  -6.7039949  44.1787620  42.4901345  -6.7439179  45.0745270
  42.3255458  -7.3695233  43.7058030  47.4164836  -4.6485006  52.1130460
  47.3577382  -5.3325786  51.4461043  47.8184355  -3.9066016  51.6611086
  36.4355535   2.1676907  44.9064179  36.6752133   2.7995432  45.5843197
  35.5924731   1.8164947  45.1929538  40.9483397  -2.0243970  47.3105683
  40.8753568  -1.2188999  47.8224987  40.5060790  -1.8252004  46.4853704
  40.7373176  -2.7872200  40.8208504  39.9540698  -2.2450520  40.9146729
  41.4365922  -2.2698220  41.2202745  43.4082080  -2.1257136  49.4663841
  44.1210053  -1.4909671  49.3939743  42.9172109  -2.0293270  48.6503843
  38.4593994  -4.3762693  50.2869412  39.1603453  -3.7426210  50.4398806
  37.9889109  -4.0347961  49.5265051  46.5848390  -6.0344743  38.5717319
  46.8608234  -6.1488148  39.4811193  45.7152888  -6.4327258  38.5329492
  43.2202454  -1.7858392  42.2150133  43.4024848  -2.6036736  42.6777885
  44.0435440  -1.5690700  41.7775023  43.5544619  -2.8590207  39.4765181
  44.0832386  -3.3697752  38.8635343  43.8172839  -3.1747677  40.3410714
  34.0561712  -4.8426338  47.2200515  34.6415149  -5.5882650  47.3528419
  33.8586550  -4.5322381  48.1037179  36.9100367  -1.8075090  42.2362957
  36.2410742  -1.3228963  41.7526997  36.7713237  -1.5605870  43.1506336
  41.0505636   0.2268653  48.8345616  41.6023944   0.3900275  49.5994701
  41.3911829   0.8173091  48.1625640  45.9016510  -4.9470089  54.6894270
  46.4456414  -4.3340131  54.1949225  45.3203355  -4.3890511  55.2061283
  44.1874023  -1.8249371  45.8209298  44.0625162  -2.6259631  45.3120243
  44.8453114  -1.3303178  45.3323268  46.2508931  -4.0240351  47.4488848
  45.3039267  -4.1435000  47.3767175  46.5991704  -4.9117853  47.5315109
  43.2555365  -4.2287635  43.6493200  43.1080327  -5.1570927  43.8300770
  44.0808858  -4.2067544  43.1650275  46.8589487  -3.4059076  44.7358073
  47.7836034  -3.6116215  44.5982524  46.6904790  -3.6542675  45.6447414
  46.6484803  -2.8873409  40.0920164  46.8221680  -3.4526986  39.3394017
  47.1413694  -2.0872514  39.9099654  47.6359975  -3.5706644  37.1917063
  48.3310880  -2.9499952  37.4104377  47.9783125  -4.4211293  37.4669440
  41.1971447  -2.2072865  50.8494270  41.5058573  -2.4523718  51.7216970
  41.9946929  -2.0026227  50.3613140  41.2192059  -0.0534955  43.0799646
  40.7797049  -0.5458577  43.7732503  41.9700176  -0.5961988  42.8391722
  33.6984398  -3.8623415  43.0824275  34.5242418  -4.1619643  42.7022918
  33.3478450  -4.6315792  43.5314063  38.6665931  -4.5096946  45.1521948
  38.0445941  -5.1726241  44.8524176  39.3370798  -4.4835815  44.4695596
  49.2245304  -5.4874035  54.0255591  48.4340848  -5.5049896  53.4860091
  48.9878659  -4.9485741  54.7804628  38.2279438  -5.9593023  38.6280409
  38.3767559  -5.2757559  37.9747081  39.0345882  -5.9787933  39.1429864
  41.7274844  -3.4644893  36.0992156  41.1548811  -2.8454705  35.6462628
  42.3007637  -2.9145531  36.6332078  44.9472103  -3.1807742  37.2300738
  45.8802777  -3.2462181  37.4333614  44.8595316  -2.3451476  36.7715271
  47.5760120  -3.8641872  34.1904686  47.4973752  -4.1982009  35.0840444
  48.3969787  -3.3720104  34.1896158  34.0105109  -1.7310800  44.8038089
  33.8759577  -2.4910399  44.2376087  33.5937171  -1.0069900  44.3366878
  45.1464072  -6.5473877  33.8114664  45.8499922  -6.3423874  34.4272320
  44.4226721  -5.9797115  34.0763748  37.1674235  -0.8341483  45.0156532
  37.0506619   0.1103949  44.9135222  36.3466681  -1.1367922  45.4042331
  47.0550769  -6.1091348  35.8613124  47.8896373  -6.5410149  35.6790599
  46.8935112  -6.2809334  36.7890019  44.0242569  -7.3010322  56.5523026
  44.8933728  -7.1269670  56.1909661  43.5449320  -6.4815906  56.4298756
  38.1928749  -0.1813221  48.2312460  39.0955996  -0.1489611  48.5478955
  37.9666119  -1.1112770  48.2458796  39.9482351  -1.4282235  44.8922539
  38.9977982  -1.4280373  44.7786911  40.2514837  -2.1749500  44.3758573
  55.6835044   4.4078304  45.9568301  56.3213454   4.2885051  45.2531641
  55.5655887   5.3559148  46.0156253  52.4924751   4.3605732  45.8929826
  52.1543262   4.2446796  45.0050361  53.3614519   3.9596897  45.8730832
  48.3511566   6.2141208  41.8826717  47.7876432   6.1231145  41.1143004
  48.2363961   5.3941113  42.3629209  52.9744534   5.5140583  51.8516031
  52.9633174   5.1193382  50.9796535  53.1365173   4.7806656  52.4449803
  45.8975998   7.7092400  44.7210937  46.6897290   7.3683224  44.3057237
  46.1372648   7.8187375  45.6413091  53.9311125   9.8812176  37.1941182
  53.2799105  10.4666256  36.8075195  54.7255488  10.4118371  37.2536219
  47.8566752   6.9701313  37.5928316  48.6297628   6.4230300  37.4541192
  48.2092151   7.8345562  37.8042777  49.6951795   8.2977695  50.7995215
  49.4041661   9.2023326  50.6841882  50.3308779   8.3394223  51.5139285
  50.6208002   5.6754544  47.3896575  51.2171574   5.4510566  46.6753538
  50.6782973   4.9339289  47.9922023  50.1933030   3.1293979  35.2246766
  50.4458551   2.6075500  34.4630229  49.2557589   2.9660125  35.3273450
  55.2376313   2.1329757  43.0321509  56.0239402   1.7149181  42.6811926
  55.5015017   3.0375850  43.2003158  55.4086390   7.5702608  37.7310166
  54.7732223   7.6437234  38.4431071  55.0783797   8.1596207  37.0529245
  60.6384740   2.0704991  43.9354488  61.3709912   1.5004207  44.1692317
  59.8824096   1.6826591  44.3760993  49.9129319   5.0322085  37.4271141
  49.7965577   4.3566988  38.0952225  50.0231579   4.5454459  36.6103294
  52.2560860   4.4932232  41.1317830  51.8919067   3.9662853  41.8430752
  53.1127976   4.1030701  40.9584316  51.8966347  -0.4777868  36.1279179
  52.0640749   0.3902368  36.4949650  51.7063516  -0.3150586  35.2040468
  54.6541680   7.9839111  47.7945009  54.3542403   8.8864150  47.6860816
  54.3092739   7.7171294  48.6466162  48.1054161   4.4352908  43.8281713
  47.1804658   4.3029122  44.0359405  48.3538575   5.2147127  44.3251656
  58.0538824   0.5021651  45.4742446  57.1455701   0.4337059  45.1801207
  58.0026419   0.9793596  46.3024272  51.8755568   1.9779789  37.1125845
  51.7555193   2.4236840  37.9511326  51.1808156   2.3265107  36.5539384
  45.4662972   4.0786181  44.6625502  45.5955354   4.3320660  45.5764914
  44.7860424   4.6713889  44.3430158  49.6362460  14.7483431  40.7615977
  49.5586489  15.6991256  40.8404457  49.0324103  14.4029304  41.4190903
  52.1279689   1.9211296  53.4177344  51.3513024   2.4805217  53.4080208
  52.7670253   2.4068079  53.9392214  59.9200470  -1.2961911  47.2520320
  59.2774850  -1.0029378  46.6060115  59.4155399  -1.4108990  48.0573517
  57.5740634   2.4501262  37.9406179  58.4858490   2.6828649  37.7653877
  57.0650281   3.0338307  37.3781258  50.3826062   4.7296750  52.9795311
  51.1240746   5.2681794  52.7030134  49.6763047   5.3563039  53.1366862
  55.8581401   6.8725890  51.5767472  56.2664757   6.4308301  50.8322104
  55.1358663   6.2978518  51.8301665  52.2112471   1.8098497  48.9501029
  53.0573667   2.2337911  49.0935678  52.1511109   1.1532121  49.6439592
  56.1810216   7.4327081  45.3319761  55.5519078   7.5972795  44.6295829
  55.7935878   7.8468691  46.1030725  60.0599448   8.3681519  42.6864125
  59.3750486   8.7480420  42.1361158  60.1443297   8.9776845  43.4196072
  55.3611917  -0.5297135  50.6082203  55.1172849   0.2244926  50.0716478
  55.6371847  -0.1511787  51.4429450  57.3150380   6.0141478  49.2859468
  57.5267275   6.6573238  48.6093849  57.2680128   5.1803794  48.8181398
  54.9176609  -1.3740702  46.1896040  54.0561088  -1.0759448  46.4812778
  54.9439043  -1.1570303  45.2577073  51.7338178   7.1701489  42.5969846
  52.1976523   7.4489192  41.8074469  51.4694976   6.2684934  42.4142937
  48.6262259   6.7172971  45.5349609  49.1963616   7.1460239  44.8967094
  49.2170371   6.4355555  46.2333795  50.6707064   3.2924641  39.4059411
  51.3731107   3.7445685  39.8733338  50.3387692   2.6508460  40.0339304
  49.1187426   1.8836398  53.7810621  48.4886086   2.5652679  54.0146017
  49.0123513   1.7719480  52.8363759  44.4132398   1.5508194  44.7076545
  43.6231452   1.8065723  44.2316655  44.9043645   2.3656532  44.8128585
  58.4296208   8.8913433  47.4581826  59.2513651   8.4893621  47.1764507
  58.4258610   8.7881667  48.4097941  46.3647143   1.9152773  41.6660021
  45.5678307   2.0271468  42.1843517  46.1372736   2.2539426  40.8000912
  52.1952811   8.4397477  49.6142536  52.2597243   8.9017884  50.4500708
  51.4863735   7.8094841  49.7424846  42.6970101   1.8038685  47.1391536
  42.9478139   2.6885694  47.4049111  43.2329649   1.6243286  46.3666627
  66.5202201   5.2352182  43.8066797  65.7665909   4.6659580  43.6510801
  66.6549742   5.2014846  44.7537432  51.9100829  10.1065584  39.4821516
  51.7746503  10.9517120  39.9106364  52.4510641  10.3084862  38.7187450
  48.3968168  -3.8142836  56.1435872  48.0035114  -4.3676638  56.8183516
  49.2134309  -3.5032258  56.5342389  45.3630226   7.6241022  40.0549441
  45.8754747   8.4184272  40.2055006  46.0152939   6.9267313  39.9883043
  47.1725111  10.7406778  42.1372195  47.3491739  11.6624743  41.9493179
  47.9681944  10.4265198  42.5666574  51.3136129  -2.3984957  53.7356128
  52.0545843  -1.7977804  53.6560591  51.5454052  -3.1407319  53.1774171
  46.4577467   2.7871410  52.0134358  46.3430982   1.8856667  52.3141457
  45.6021985   3.0335107  51.6619174  53.5369305  10.7289151  53.6121858
  53.0933159   9.9425529  53.2942763  54.1986519  10.9168301  52.9465749
  48.2956426  12.2584952  48.1382537  48.8463851  12.1302015  47.3659531
  47.4567902  12.5579841  47.7877430  55.6350543  11.0091950  51.6403260
  55.6169018  11.8300832  51.1483529  56.5570463  10.8846026  51.8653401
  52.0923597   8.5236080  52.4826768  52.6251934   7.7624368  52.2526076
  51.5637678   8.2309732  53.2250923  43.3279143   5.9529676  40.8309012
  44.1654365   6.3626685  40.6142720  43.5057410   5.0129119  40.8009206
  55.2243575   3.6204757  36.5192845  54.7090198   4.3909362  36.7581232
  54.9520883   2.9469893  37.1425906  52.8090686  -1.5345542  41.5778083
  51.9532282  -1.9238692  41.3983722  53.2217638  -1.4553581  40.7177869
  54.3389833  -3.9999199  45.9769643  53.8354628  -4.0369064  45.1637448
  54.6320439  -3.0906456  46.0366300  50.5832718  -3.9160469  44.9835825
  51.4485715  -4.1117661  44.6241714  50.6510227  -4.1450117  45.9105182
  60.1977849   6.3737112  38.4546018  59.4207292   6.0348271  38.0101181
  60.8769330   6.3789735  37.7800984  55.0129878   1.4931849  38.3452626
  54.7080014   1.8077998  39.1962769  55.9660320   1.5713269  38.3879959
  53.4576310   7.6522072  39.9945580  52.9297671   6.9174832  39.6818818
  52.9563813   8.4296749  39.7485548  58.4369156   5.8471093  45.1112626
  57.7792830   6.5370354  45.1992755  59.2409555   6.2367525  45.4546613
  48.1895038  -1.6858261  42.3552192  48.7638789  -1.9083080  41.6225385
  48.7766020  -1.6169567  43.1080793  57.2474615   4.2015466  43.1616568
  57.7606496   4.8345457  43.6638278  57.8975839   3.6016661  42.7959928
  48.5164625   0.3446200  36.3748077  47.6801937   0.6820886  36.6957352
  48.3769394   0.2095180  35.4375214  50.4917705  -4.8117012  41.0827261
  49.8382118  -5.1267995  40.4583876  50.4498179  -5.4341272  41.8087084
  51.6028910   5.4702283  32.9980553  50.6955972   5.2391536  33.1971702
  52.0999942   4.6739902  33.1854535  54.5096989  14.1799790  35.9177239
  53.8358688  14.4831487  36.5262197  54.8962811  14.9828870  35.5682696
  53.7255446   1.6764921  45.4074909  52.8078007   1.8979868  45.2496597
  54.1415589   1.7511232  44.5486616  54.5090493   3.0756337  40.5377589
  55.2562312   3.5877734  40.2284711  54.7782083   2.7540390  41.3981983
  52.7817144   5.5714878  37.5204543  51.8728363   5.2873910  37.6177013
  52.8112227   5.9913956  36.6607850  58.0136411   9.1821467  41.2895711
  57.5598738   8.3412377  41.3460901  57.3830378   9.8182865  41.6270491
  56.9569331   0.1113453  42.5196378  56.2192087  -0.4009161  42.8506621
  57.2096104  -0.3286165  41.7079655  56.4569350  11.0197964  42.2245529
  56.7492325  11.5803021  41.5057895  56.9667971  11.3126525  42.9798688
  43.3505314   3.2920392  41.5019745  43.1529714   2.6989752  40.7770812
  42.7951978   2.9872602  42.2195684  51.3302038   3.1843498  43.6214339
  51.3850647   2.2317335  43.5456815  50.5193240   3.3402937  44.1055637
  52.4793231   7.1123621  34.8592622  52.0412661   6.3959480  34.3998259
  53.2203672   7.3399736  34.2977713  49.2694397   1.8020558  41.3804717
  48.4562263   2.1014728  41.7869910  49.7653392   1.4076247  42.0979200
  51.4202975  11.7978315  43.3138982  51.3779154  12.0239161  42.3847514
  52.3365674  11.5641689  43.4624783  54.8668609   2.2662382  50.2119611
  55.2217997   2.4933856  51.0714077  55.5140740   2.5980759  49.5896867
  60.5966346   5.3880818  40.9168940  60.4584245   5.5782414  39.9890130
  60.2402565   6.1500201  41.3736992  48.7608472  -0.6261087  46.9965952
  49.4007852  -0.7672327  46.2988916  47.9286003  -0.9126573  46.6204554
  60.6235726   7.4557345  45.9280212  61.0572232   7.3632634  46.7763266
  61.3367306   7.4314846  45.2900228  49.5368776   8.6741344  43.1100945
  50.3309375   8.1791664  42.9083520  48.8260469   8.1459207  42.7468650
  54.3563621  11.0559439  47.4613313  54.4100643  11.6250376  48.2291028
  53.4878402  11.2261324  47.0967350  45.8451540   2.8184426  39.1860698
  44.9149128   2.7568881  39.4030660  45.9409012   2.2960378  38.3897339
  45.7637089  -0.6560762  41.7738939  46.0243906   0.2584572  41.6648100
  46.5854261  -1.1236319  41.9235552  47.2362014   0.7576996  48.9437764
  47.9085067   0.5494358  48.2950413  46.4091801   0.5599082  48.5042996
  61.4851275   7.4981046  48.4613097  61.6787165   8.4026856  48.7072372
  61.3851893   7.0388465  49.2951682  53.1387586  -2.6161063  50.9603425
  52.4915501  -1.9171114  50.8667901  53.9088601  -2.1824920  51.3279673
  56.5466384   7.6487789  54.0353978  56.3951890   7.4198340  53.1184062
  56.5371063   8.6058390  54.0485323  53.3151720   5.2219701  49.0200244
  54.2443780   5.3730861  48.8469212  52.8942750   5.3103722  48.1648891
  52.1140052   9.2470366  46.7898782  51.9751138   8.8789150  47.6624720
  51.3254648   9.7618005  46.6182740  52.7088204  14.3479462  38.1324319
  52.8839960  13.8767505  38.9469941  52.0220992  14.9745229  38.3605579
  53.6645267   8.6251969  44.1787620  53.3295100   8.5852739  45.0745270
  53.1649213   7.9596684  43.7058030  47.6389511   4.0319599  49.7040201
  47.5009309   3.2999837  50.3051740  48.5494435   3.9428499  49.4224389
  56.6004459   5.9708003  34.4524679  55.9833630   5.2454831  34.3557732
  56.1320947   6.7317363  34.1091754  50.2671812   3.7439558  49.1923881
  50.9771430   3.1032750  49.1510499  50.2241120   3.9952453  50.1150061
  58.2558591  10.6806911  52.1130460  58.1971137   9.9966131  51.4461043
  58.6578109  11.4225901  51.6611086  48.9800746   0.7304776  51.0119520
  48.4438103   0.2795514  51.6641116  48.3917454   0.8650685  50.2689984
  47.2749289  17.4968825  44.9064179  47.5145888  18.1287349  45.5843197
  46.4318486  17.1456865  45.1929538  48.3903005   0.1893427  33.5745984
  47.5132471   0.0682228  33.2108230  48.8660758  -0.6020495  33.3224872
  58.2575998   8.6446495  50.3444439  57.3702777   8.3072417  50.4670838
  58.8274549   7.9129526  50.5813205  39.9105145   4.9770587  43.6687491
  40.5976185   4.6632317  43.0808506  39.7553274   5.8811952  43.3954742
  44.7139867  -0.1339217  48.0972515  44.6298056  -0.7413547  47.3622924
  43.8922574   0.3569802  48.0982011  51.7877151  13.3047948  47.3105683
  51.7147323  14.1102919  47.8224987  51.3454544  13.5039913  46.4853704
  51.5766931  12.5419718  40.8208504  50.7934453  13.0841398  40.9146729
  52.2759676  13.0593697  41.2202745  54.8863581  -1.6485653  43.4642710
  55.3832281  -2.4015691  43.1443780  54.1150563  -1.6121336  42.8985919
  62.7393338   4.0554713  45.1061001  62.7283215   4.9379428  44.7354934
  61.8710718   3.7026263  44.9115538  54.2475835  13.2034782  49.4663841
  54.9603807  13.8382246  49.3939743  53.7565863  13.2998648  48.6503843
  55.9693362   7.1086034  41.0381133  55.0349640   7.2287497  40.8685837
  56.1470030   6.2058501  40.7741143  51.4698550   0.4931730  43.1914394
  51.0996337  -0.0597230  43.8795300  51.9657642  -0.1110137  42.6389394
  59.3565913   2.9503353  41.5731167  59.8226365   3.7831345  41.4991470
  59.8073414   2.4848335  42.2776426  49.2987748  10.9529225  50.2869412
  49.9997208  11.5865708  50.4398806  48.8282863  11.2943957  49.5265051
  57.4242144   9.2947175  38.5717319  57.7001988   9.1803769  39.4811193
  56.5546643   8.8964660  38.5329492  57.0989034   3.5073832  48.1121963
  56.4460485   3.7549740  47.4574415  57.4769414   2.6937971  47.7784440
  54.0596208  13.5433526  42.2150133  54.2418603  12.7255182  42.6777885
  54.8829194  13.7601218  41.7775023  54.3938374  12.4701711  39.4765181
  54.9226140  11.9594165  38.8635343  54.6566593  12.1544241  40.3410714
  53.1476607   4.2493644  54.5988000  52.4717244   4.1487773  55.2690375
  53.9704241   4.0932857  55.0623997  44.8955466  10.4865580  47.2200515
  45.4808903   9.7409268  47.3528419  44.6980305  10.7969537  48.1037179
  47.7494122  13.5216827  42.2362957  47.0804497  14.0062955  41.7526997
  47.6106991  13.7686048  43.1506336  39.4873121   3.0571180  45.9404958
  39.5257221   2.5234771  46.7342076  38.9813414   2.5306386  45.3215935
  51.8899390  15.5560571  48.8345616  52.4417698  15.7192192  49.5994701
  52.2305584  16.1465009  48.1625640  46.8663883  -2.0964279  49.4367500
  46.9305210  -1.2349448  49.0244898  46.8031004  -2.7090278  48.7039859
  46.3416156  -0.0241147  53.0840535  46.9688195  -0.4064069  53.6978059
  45.4844075  -0.2426945  53.4496227  56.7410265  10.3821828  54.6894270
  57.2850168  10.9951787  54.1949225  56.1597109  10.9401407  55.2061283
  43.1181699   1.7835282  39.0158889  43.4135140   0.8745961  38.9625943
  42.2169734   1.7623022  38.6939892  55.0267777  13.5042546  45.8209298
  54.9018917  12.7032286  45.3120243  55.6846869  13.9988740  45.3323268
  46.6475946  -0.1408721  44.9986438  45.9262531   0.4727247  44.8593911
  47.4369201   0.3949044  44.9203084  57.0902686  11.3051567  47.4488848
  56.1433021  11.1856918  47.3767175  57.4385459  10.4174065  47.5315109
  49.4502259  -2.8054295  51.2727090  49.9736661  -2.5591998  52.0353399
  49.2314592  -1.9734260  50.8530227  44.8469540  -0.5350620  39.1398215
  44.5182246  -1.4153241  38.9573320  45.2008911  -0.5902951  40.0274604
  54.0949119  11.1004283  43.6493200  53.9474082  10.1720990  43.8300770
  54.9202613  11.1224373  43.1650275  47.9611363  -0.2477650  39.5073692
  48.3007436   0.2808271  38.7852301  48.4083484   0.0902756  40.2832259
  57.6983241  11.9232842  44.7358073  58.6229788  11.7175703  44.5982524
  57.5298544  11.6749243  45.6447414  50.6554804  -1.8640599  48.9576760
  50.3151625  -2.6632786  49.3597440  49.9493811  -1.5638889  48.3853593
  49.9479511  -1.7503029  37.7066985  50.6687873  -1.3721776  37.2030702
  49.3244815  -1.0314152  37.8101963  54.0910633  -1.0457880  38.6425317
  54.3074248  -0.1633242  38.3414145  53.6104701  -1.4371666  37.9130959
  48.8309855   1.9127834  45.2196062  48.6854436   2.2268137  46.1120343
  48.3535058   2.5312734  44.6666961  50.6906238  -1.0969618  45.2676951
  50.6767806  -1.9928525  44.9309249  51.4078666  -1.0898955  45.9015237
  52.5432368  -0.6632278  47.3130079  52.2850146   0.2584792  47.3114409
  52.0117409  -1.0601844  48.0030543  57.4878557  12.4418509  40.0920164
  57.6615435  11.8764931  39.3394017  57.9807448  13.2419404  39.9099654
  43.3055517   4.4533178  48.1583723  42.7608985   5.2292986  48.2903997
  44.1834867   4.8003983  48.0002845  50.0943134  -2.2155238  40.5364522
  50.2159045  -3.1438592  40.7355409  49.8045176  -2.2016552  39.6242837
  63.3417948   5.2054932  41.7110464  63.7849094   4.4562257  41.3129587
  62.4644459   5.1965068  41.3284196  58.4753730  11.7585273  37.1917063
  59.1704634  12.3791966  37.4104377  58.8176880  10.9080625  37.4669440
  44.0921539   3.5803074  51.0513880  43.3503275   3.7285710  51.6378510
  43.7714283   3.8411340  50.1880629  60.3745153   9.2084979  38.7204393
  60.8996477   9.5472252  37.9953713  60.2867505   8.2731994  38.5367528
  52.0365202  13.1219053  50.8494270  52.3452328  12.8768199  51.7216970
  52.8340684  13.3265691  50.3613140  52.0585814  15.2756962  43.0799646
  51.6190804  14.7833341  43.7732503  52.8093931  14.7329930  42.8391722
  44.5378153  11.4668503  43.0824275  45.3636172  11.1672275  42.7022918
  44.1872205  10.6976125  43.5314063  49.5059686  10.8194971  45.1521948
  48.8839695  10.1565676  44.8524176  50.1764553  10.8456103  44.4695596
  42.7386758   9.3854830  44.0413208  41.9018666   8.9577004  43.8597209
  42.7110403   9.5787273  44.9783999  49.5784213  -0.7023241  54.7454454
  49.6272369   0.1738882  54.3632224  50.1206727  -1.2445848  54.1726097
  60.0639059   9.8417883  54.0255591  59.2734603   9.8242021  53.4860091
  59.8272413  10.3806176  54.7804628  60.1836934   6.6910349  51.3388320
  60.2334939   6.5260356  52.2803843  60.0750857   5.8237608  50.9486201
  49.0673193   9.3698895  38.6280409  49.2161313  10.0534359  37.9747081
  49.8739636   9.3503985  39.1429864  57.4740696   2.6741277  52.6547627
  58.3750559   2.5347742  52.3631624  57.5488671   2.8395732  53.5945804
  51.8083502   0.0508132  51.5000813  50.9386811   0.3441698  51.2283401
  52.0442982   0.6348577  52.2208076  61.6855131   9.1107290  51.5830341
  61.3939939   9.4737271  52.4193802  61.0727262   8.3974299  51.4043673
  62.8850813   6.6760170  44.1032912  63.7197704   7.1149974  44.2670472
  63.0209942   6.1998823  43.2841157  59.9342319   4.2339905  50.0510399
  60.4096441   4.4267551  49.2429251  59.0107884   4.2899091  49.8053783
  46.8225826   5.3964072  39.6341478  46.5771868   4.4926402  39.8321688
  46.9921740   5.3981223  38.6920956  54.5122535  -3.7312251  49.0166233
  55.0304479  -2.9951224  48.6912722  54.1577668  -3.4248258  49.8512992
  46.0921473   1.1292430  37.1327639  45.3990718   1.2036785  36.4767675
  45.8473225   0.3652773  37.6549156  52.5668598  11.8647025  36.0992156
  51.9942565  12.4837212  35.6462628  53.1401392  12.4146387  36.6332078
  58.6343988   1.1105665  48.2838705  59.5861411   1.2103763  48.3050929
  58.4647438   0.3183934  48.7936789  56.6558367  -1.8038752  48.4698106
  56.0608300  -1.5233739  47.7744594  56.3708064  -1.3144851  49.2414847
  55.7865858  12.1484175  37.2300738  56.7196531  12.0829737  37.4333614
  55.6989071  12.9840442  36.7715271  58.4153875  11.4650046  34.1904686
  58.3367506  11.1309909  35.0840444  59.2363541  11.9571813  34.1896158
  61.1132066   4.3311785  47.3981005  61.0808386   3.3927786  47.5840688
  61.7232689   4.4095822  46.6646829  52.9515397   3.2007838  33.4408209
  53.8974501   3.0714046  33.5096627  52.5729642   2.4622500  33.9177637
  61.2626554   1.1222828  47.4439288  60.7465603   0.3381285  47.2569217
  62.1466503   0.7941545  47.6085807  66.9308616   5.3927792  46.5387041
  67.6612004   5.1313080  47.0994745  66.3215561   4.6556514  46.5789109
  65.0123913   3.5335654  47.1361493  64.2857076   3.3991619  46.5277984
  64.5971200   3.8412483  47.9418211  52.8354089   7.2525584  54.9008866
  53.7557099   7.4304183  55.0948912  52.8003672   6.3081629  54.7488565
  51.1358314   1.1257814  33.3763094  50.2289769   0.8290927  33.4525807
  51.4134295   0.8287632  32.5097380  42.0536254   2.4464178  43.8262140
  41.7339039   1.5929486  43.5336514  41.5069682   2.6612756  44.5820108
  45.8316162   5.1626619  47.5431647  46.0502172   6.0943726  47.5619681
  46.2441936   4.8034593  48.3286451  52.7520380  -4.3305296  39.5307335
  51.9421108  -4.6758211  39.9062581  53.4404796  -4.6397752  40.1194947
  50.7044027   0.7359824  56.9334396  50.6040754   1.6854181  56.8646487
  50.4865569   0.4078063  56.0610466  49.9057098  -2.0155251  33.5175073
  50.7676262  -1.6900352  33.7770890  50.0907443  -2.8023755  33.0048139
  41.9224514   6.0667089  45.7955262  41.2287986   5.6521042  45.2825216
  42.6697505   6.1087626  45.1988681  50.5675297   4.1656963  55.7499457
  50.0842379   4.9657323  55.9563346  50.6536236   4.1764908  54.7966901
  43.8361257   5.9985343  43.6721277  43.8131945   6.0973030  42.7203160
  44.1461893   6.8450494  43.9938443  46.4948635   8.0561498  47.7867891
  47.4491888   8.0245440  47.7197823  46.2961158   7.5952122  48.6018117
  47.0848017   6.6262614  50.3538689  47.9040906   7.1206693  50.3773526
  47.3584824   5.7094582  50.3256256  56.8414613  -0.9826634  39.7166644
  55.9540468  -0.6976983  39.4986839  57.2568602  -1.1432870  38.8693921
  60.1929149  -0.9580113  43.4320984  60.9689539  -0.4683660  43.7045600
  59.4677283  -0.5322059  43.8892853  62.6301708  -0.2452494  44.4894924
  63.2246198  -0.4856758  43.7788232  62.7028291  -0.9645363  45.1168460
  44.8498863  13.5981117  44.8038089  44.7153331  12.8381518  44.2376087
  44.4330926  14.3222017  44.3366878  55.9857826   8.7818041  33.8114664
  56.6893677   8.9868043  34.4272320  55.2620475   9.3494803  34.0763748
  56.8155637   4.5327902  39.9316934  56.7590838   4.9896454  39.0924567
  57.3683979   3.7718587  39.7539777  60.6260443   0.3217634  40.7567054
  60.3697377  -0.0785730  41.5875262  60.0013311   1.0361428  40.6317193
  64.9372780   3.0613707  43.2638345  64.3772338   3.1306897  44.0369907
  64.3316284   2.8854692  42.5437842  48.0067989  14.4950434  45.0156532
  47.8900373  15.4395867  44.9135222  47.1860436  14.1923996  45.4042331
  57.8944524   9.2200570  35.8613124  58.7290128   8.7881769  35.6790599
  57.7328867   9.0482584  36.7890019  57.5490416   5.7232683  37.2269464
  57.4939220   5.5576955  36.2857908  56.9236471   6.4308716  37.3831653
  42.3382931   0.9600748  51.0530886  42.9841795   0.4499702  51.5418111
  42.1300082   1.6969429  51.6274311  54.8636323   8.0281595  56.5523026
  55.7327483   8.2022248  56.1909661  54.3843075   8.8476012  56.4298756
  50.8586541  -4.7759208  36.8054782  50.8465211  -3.8317368  36.9623053
  51.7509963  -4.9589062  36.5114243  49.0322503  15.1478696  48.2312460
  49.9349750  15.1802307  48.5478955  48.8059873  14.2179147  48.2458796
  50.7876105  13.9009683  44.8922539  49.8371736  13.9011544  44.7786911
  51.0908592  13.1542417  44.3758573  46.6780422  -1.8931635  55.1505900
  47.5411884  -2.2494830  55.3609225  46.1045833  -2.2317740  55.8381304
  66.5228799  19.7370221  45.9568301  67.1607209  19.6176969  45.2531641
  66.4049642  20.6851065  46.0156253  63.3318505  19.6897649  45.8929826
  62.9937017  19.5738714  45.0050361  64.2008273  19.2888814  45.8730832
  59.1905321  21.5433126  41.8826717  58.6270186  21.4523063  41.1143004
  59.0757716  20.7233030  42.3629209  63.8138288  20.8432501  51.8516031
  63.8026929  20.4485299  50.9796535  63.9758928  20.1098574  52.4449803
  56.7369753  23.0384317  44.7210937  57.5291045  22.6975142  44.3057237
  56.9766403  23.1479292  45.6413091  64.7704880  25.2104093  37.1941182
  64.1192859  25.7958174  36.8075195  65.5649242  25.7410288  37.2536219
  58.6960507  22.2993231  37.5928316  59.4691383  21.7522218  37.4541192
  59.0485906  23.1637480  37.8042777  60.5345549  23.6269613  50.7995215
  60.2435415  24.5315244  50.6841882  61.1702534  23.6686140  51.5139285
  61.4601756  21.0046461  47.3896575  62.0565328  20.7802484  46.6753538
  61.5176728  20.2631207  47.9922023  61.0326785  18.4585897  35.2246766
  61.2852305  17.9367418  34.4630229  60.0951344  18.2952042  35.3273450
  66.0770067  17.4621675  43.0321509  66.8633157  17.0441098  42.6811926
  66.3408772  18.3667767  43.2003158  66.2480145  22.8994525  37.7310166
  65.6125978  22.9729152  38.4431071  65.9177551  23.4888124  37.0529245
  71.4778495  17.3996908  43.9354488  72.2103666  16.8296125  44.1692317
  70.7217850  17.0118509  44.3760993  60.7523073  20.3614003  37.4271141
  60.6359331  19.6858906  38.0952225  60.8625333  19.8746377  36.6103294
  63.0954614  19.8224150  41.1317830  62.7312821  19.2954771  41.8430752
  63.9521730  19.4322619  40.9584316  69.0003915  11.1118482  48.3949096
  68.6687240  11.9813893  48.1710311  68.4049528  10.7954766  49.0743127
  62.7360101  14.8514049  36.1279179  62.9034504  15.7194286  36.4949650
  62.5457270  15.0141331  35.2040468  65.4935434  23.3131028  47.7945009
  65.1936157  24.2156067  47.6860816  65.1486494  23.0463212  48.6466162
  58.9447916  19.7644825  43.8281713  58.0198412  19.6321039  44.0359405
  59.1932329  20.5439044  44.3251656  68.8932578  15.8313569  45.4742446
  67.9849456  15.7628977  45.1801207  68.8420174  16.3085514  46.3024272
  62.7149322  17.3071707  37.1125845  62.5948947  17.7528758  37.9511326
  62.0201910  17.6557025  36.5539384  56.3056727  19.4078099  44.6625502
  56.4349108  19.6612578  45.5764914  55.6254178  20.0005807  44.3430158
  60.4756214  30.0775349  40.7615977  60.3980244  31.0283174  40.8404457
  59.8717858  29.7321221  41.4190903  62.9673444  17.2503214  53.4177344
  62.1906778  17.8097134  53.4080208  63.6064007  17.7359997  53.9392214
  70.7594225  14.0330007  47.2520320  70.1168605  14.3262540  46.6060115
  70.2549153  13.9182927  48.0573517  68.4134388  17.7793180  37.9406179
  69.3252244  18.0120567  37.7653877  67.9044035  18.3630224  37.3781258
  61.2219816  20.0588668  52.9795311  61.9634501  20.5973711  52.7030134
  60.5156802  20.6854956  53.1366862  66.6975156  22.2017808  51.5767472
  67.1058512  21.7600219  50.8322104  65.9752417  21.6270436  51.8301665
  63.0506226  17.1390415  48.9501029  63.8967421  17.5629828  49.0935678
  62.9904864  16.4824039  49.6439592  67.0203971  22.7618999  45.3319761
  66.3912833  22.9264713  44.6295829  66.6329633  23.1760608  46.1030725
  70.8993202  23.6973436  42.6864125  70.2144241  24.0772338  42.1361158
  70.9837052  24.3068763  43.4196072  66.2005671  14.7994783  50.6082203
  65.9566603  15.5536844  50.0716478  66.4765602  15.1780131  51.4429450
  68.1544134  21.3433395  49.2859468  68.3661029  21.9865155  48.6093849
  68.1073882  20.5095712  48.8181398  65.7570363  13.9551216  46.1896040
  64.8954842  14.2532470  46.4812778  65.7832798  14.1721615  45.2577073
  62.5731932  22.4993407  42.5969846  63.0370278  22.7781110  41.8074469
  62.3088731  21.5976851  42.4142937  59.4656013  22.0464888  45.5349609
  60.0357371  22.4752157  44.8967094  60.0564125  21.7647473  46.2333795
  61.5100818  18.6216559  39.4059411  62.2124862  19.0737603  39.8733338
  61.1781447  17.9800378  40.0339304  59.9581180  17.2128316  53.7810621
  59.3279841  17.8944597  54.0146017  59.8517268  17.1011397  52.8363759
  55.2526152  16.8800112  44.7076545  54.4625206  17.1357640  44.2316655
  55.7437400  17.6948450  44.8128585  69.2689962  24.2205351  47.4581826
  70.0907406  23.8185538  47.1764507  69.2652365  24.1173585  48.4097941
  57.2040898  17.2444691  41.6660021  56.4072061  17.3563385  42.1843517
  56.9766490  17.5831343  40.8000912  63.0346565  23.7689394  49.6142536
  63.0990998  24.2309801  50.4500708  62.3257489  23.1386759  49.7424846
  53.5363855  17.1330602  47.1391536  53.7871894  18.0177612  47.4049111
  54.0723404  16.9535204  46.3666627  77.3595955  20.5644099  43.8066797
  76.6059663  19.9951497  43.6510801  77.4943496  20.5306764  44.7537432
  62.7494583  25.4357502  39.4821516  62.6140258  26.2809037  39.9106364
  63.2904396  25.6376779  38.7187450  59.2361923  11.5149082  56.1435872
  58.8428868  10.9615280  56.8183516  60.0528063  11.8259660  56.5342389
  56.2023980  22.9532940  40.0549441  56.7148501  23.7476190  40.2055006
  56.8546693  22.2559230  39.9883043  58.0118865  26.0698696  42.1372195
  58.1885494  26.9916661  41.9493179  58.8075699  25.7557115  42.5666574
  62.1529884  12.9306961  53.7356128  62.8939597  13.5314114  53.6560591
  62.3847807  12.1884598  53.1774171  57.2971222  18.1163328  52.0134358
  57.1824737  17.2148585  52.3141457  56.4415739  18.3627025  51.6619174
  64.3763059  26.0581068  53.6121858  63.9326914  25.2717447  53.2942763
  65.0380273  26.2460219  52.9465749  59.1350181  27.5876870  48.1382537
  59.6857606  27.4593933  47.3659531  58.2961657  27.8871759  47.7877430
  66.4744298  26.3383868  51.6403260  66.4562773  27.1592749  51.1483529
  67.3964218  26.2137943  51.8653401  62.9317352  23.8527998  52.4826768
  63.4645688  23.0916286  52.2526076  62.4031433  23.5601649  53.2250923
  66.0987047   8.9588064  48.0120410  65.7551316   9.8489705  47.9359520
  66.4666009   8.7689721  47.1489995  54.1672897  21.2821594  40.8309012
  55.0048119  21.6918602  40.6142720  54.3451165  20.3421036  40.8009206
  66.0637329  18.9496675  36.5192845  65.5483953  19.7201279  36.7581232
  65.7914638  18.2761811  37.1425906  63.6484440  13.7946375  41.5778083
  62.7926037  13.4053226  41.3983722  64.0611392  13.8738336  40.7177869
  65.1783587  11.3292719  45.9769643  64.6748383  11.2922854  45.1637448
  65.4714194  12.2385461  46.0366300  61.4226473  11.4131448  44.9835825
  62.2879470  11.2174257  44.6241714  61.4903982  11.1841800  45.9105182
  71.0371604  21.7029029  38.4546018  70.2601046  21.3640189  38.0101181
  71.7163084  21.7081653  37.7800984  65.8523633  16.8223767  38.3452626
  65.5473768  17.1369916  39.1962769  66.8054075  16.9005187  38.3879959
  64.2970064  22.9813990  39.9945580  63.7691426  22.2466750  39.6818818
  63.7957567  23.7588666  39.7485548  69.2762910  21.1763011  45.1112626
  68.6186585  21.8662272  45.1992755  70.0803310  21.5659443  45.4546613
  59.0288792  13.6433656  42.3552192  59.6032544  13.4208838  41.6225385
  59.6159774  13.7122351  43.1080793  68.0868369  19.5307383  43.1616568
  68.6000251  20.1637375  43.6638278  68.7369593  18.9308579  42.7959928
  59.3558379  15.6738117  36.3748077  58.5195691  16.0112804  36.6957352
  59.2163149  15.5387097  35.4375214  61.3311460  10.5174905  41.0827261
  60.6775872  10.2023922  40.4583876  61.2891934   9.8950646  41.8087084
  62.4422665  20.7994200  32.9980553  61.5349726  20.5683454  33.1971702
  62.9393697  20.0031820  33.1854535  65.3490743  29.5091708  35.9177239
  64.6752442  29.8123404  36.5262197  65.7356565  30.3120788  35.5682696
  64.5649200  17.0056839  45.4074909  63.6471761  17.2271786  45.2496597
  64.9809344  17.0803149  44.5486616  65.3484248  18.4048255  40.5377589
  66.0956067  18.9169652  40.2284711  65.6175837  18.0832307  41.3981983
  63.6210898  20.9006795  37.5204543  62.7122117  20.6165828  37.6177013
  63.6505982  21.3205874  36.6607850  68.8530165  24.5113385  41.2895711
  68.3992493  23.6704295  41.3460901  68.2224132  25.1474783  41.6270491
  67.7963085  15.4405371  42.5196378  67.0585842  14.9282757  42.8506621
  68.0489859  15.0005752  41.7079655  67.2963105  26.3489881  42.2245529
  67.5886079  26.9094939  41.5057895  67.8061725  26.6418442  42.9798688
  67.8974712   8.2181623  43.1138148  68.2033589   7.3578986  42.8264063
  68.6227317   8.8099243  42.9137141  54.1899068  18.6212309  41.5019745
  53.9923468  18.0281670  40.7770812  53.6345732  18.3164520  42.2195684
  62.1695792  18.5135416  43.6214339  62.2244402  17.5609252  43.5456815
  61.3586994  18.6694855  44.1055637  63.3186986  22.4415539  34.8592622
  62.8806416  21.7251398  34.3998259  64.0597427  22.6691654  34.2977713
  60.1088152  17.1312476  41.3804717  59.2956018  17.4306646  41.7869910
  60.6047146  16.7368164  42.0979200  62.2596730  27.1270233  43.3138982
  62.2172909  27.3531079  42.3847514  63.1759429  26.8933607  43.4624783
  65.7062364  17.5954300  50.2119611  66.0611751  17.8225773  51.0714077
  66.3534495  17.9272677  49.5896867  71.4360101  20.7172736  40.9168940
  71.2977999  20.9074332  39.9890130  71.0796319  21.4792119  41.3736992
  59.6002227  14.7030831  46.9965952  60.2401606  14.5619590  46.2988916
  58.7679757  14.4165344  46.6204554  71.4629480  22.7849263  45.9280212
  71.8965987  22.6924552  46.7763266  72.1761061  22.7606763  45.2900228
  60.3762531  24.0033262  43.1100945  61.1703129  23.5083582  42.9083520
  59.6654223  23.4751125  42.7468650  65.1957375  26.3851357  47.4613313
  65.2494397  26.9542293  48.2291028  64.3272156  26.5553242  47.0967350
  56.6845294  18.1476343  39.1860698  55.7542882  18.0860799  39.4030660
  56.7802766  17.6252296  38.3897339  56.6030843  14.6731156  41.7738939
  56.8637660  15.5876489  41.6648100  57.4248015  14.2055599  41.9235552
  58.0755768  16.0868913  48.9437764  58.7478822  15.8786275  48.2950413
  57.2485555  15.8890999  48.5042996  72.3245030  22.8272964  48.4613097
  72.5180920  23.7318774  48.7072372  72.2245648  22.3680383  49.2951682
  63.9781341  12.7130854  50.9603425  63.3309256  13.4120804  50.8667901
  64.7482356  13.1466998  51.3279673  67.3860138  22.9779706  54.0353978
  67.2345645  22.7490258  53.1184062  67.3764818  23.9350308  54.0485323
  64.1545475  20.5511619  49.0200244  65.0837535  20.7022779  48.8469212
  63.7336505  20.6395640  48.1648891  62.9533807  24.5762284  46.7898782
  62.8144892  24.2081068  47.6624720  62.1648403  25.0909923  46.6182740
  63.5481959  29.6771380  38.1324319  63.7233714  29.2059423  38.9469941
  62.8614747  30.3037146  38.3605579  64.5039022  23.9543886  44.1787620
  64.1688854  23.9144656  45.0745270  64.0042967  23.2888602  43.7058030
  58.4783266  19.3611516  49.7040201  58.3403064  18.6291755  50.3051740
  59.3888189  19.2720416  49.4224389  67.4398213  21.2999921  34.4524679
  66.8227384  20.5746749  34.3557732  66.9714702  22.0609281  34.1091754
  61.1065566  19.0731476  49.1923881  61.8165185  18.4324668  49.1510499
  61.0634875  19.3244370  50.1150061  69.0952345  26.0098829  52.1130460
  69.0364891  25.3258049  51.4461043  69.4971863  26.7517819  51.6611086
  59.8194500  16.0596693  51.0119520  59.2831857  15.6087432  51.6641116
  59.2311209  16.1942602  50.2689984  58.1143044  32.8260743  44.9064179
  58.3539642  33.4579267  45.5843197  57.2712240  32.4748783  45.1929538
  59.2296759  15.5185345  33.5745984  58.3526226  15.3974146  33.2108230
  59.7054512  14.7271423  33.3224872  69.0969752  23.9738413  50.3444439
  68.2096531  23.6364335  50.4670838  69.6668303  23.2421444  50.5813205
  50.7498899  20.3062505  43.6687491  51.4369939  19.9924235  43.0808506
  50.5947028  21.2103869  43.3954742  55.5533622  15.1952701  48.0972515
  55.4691810  14.5878371  47.3622924  54.7316328  15.6861719  48.0982011
  62.6270906  28.6339865  47.3105683  62.5541077  29.4394837  47.8224987
  62.1848299  28.8331831  46.4853704  62.4160685  27.8711635  40.8208504
  61.6328207  28.4133315  40.9146729  63.1153431  28.3885615  41.2202745
  65.7257335  13.6806265  43.4642710  66.2226035  12.9276227  43.1443780
  64.9544317  13.7170581  42.8985919  73.5787093  19.3846630  45.1061001
  73.5676969  20.2671346  44.7354934  72.7104472  19.0318181  44.9115538
  65.0869589  28.5326699  49.4663841  65.7997561  29.1674164  49.3939743
  64.5959618  28.6290565  48.6503843  66.8087116  22.4377952  41.0381133
  65.8743395  22.5579414  40.8685837  66.9863785  21.5350419  40.7741143
  62.3092304  15.8223648  43.1914394  61.9390092  15.2694688  43.8795300
  62.8051397  15.2181781  42.6389394  70.1959668  18.2795271  41.5731167
  70.6620120  19.1123263  41.4991470  70.6467168  17.8140253  42.2776426
  60.1381503  26.2821143  50.2869412  60.8390962  26.9157626  50.4398806
  59.6676618  26.6235874  49.5265051  68.2635899  24.6239092  38.5717319
  68.5395743  24.5095687  39.4811193  67.3940397  24.2256577  38.5329492
  68.1676330  10.6475858  45.6122068  67.2539410  10.8780085  45.7804275
  68.5969432  10.7314302  46.4636101  67.9382789  18.8365750  48.1121963
  67.2854239  19.0841658  47.4574415  68.3163169  18.0229888  47.7784440
  64.8989963  28.8725443  42.2150133  65.0812357  28.0547099  42.6777885
  65.7222949  29.0893136  41.7775023  65.2332128  27.7993628  39.4765181
  65.7619895  27.2886083  38.8635343  65.4960348  27.4836159  40.3410714
  63.9870362  19.5785561  54.5988000  63.3110999  19.4779691  55.2690375
  64.8097996  19.4224775  55.0623997  55.7349221  25.8157498  47.2200515
  56.3202658  25.0701186  47.3528419  55.5374059  26.1261454  48.1037179
  58.5887876  28.8508745  42.2362957  57.9198251  29.3354873  41.7526997
  58.4500746  29.0977966  43.1506336  50.3266876  18.3863098  45.9404958
  50.3650975  17.8526689  46.7342076  49.8207168  17.8598303  45.3215935
  62.7293145  30.8852489  48.8345616  63.2811453  31.0484110  49.5994701
  63.0699338  31.4756926  48.1625640  57.7057638  13.2327638  49.4367500
  57.7698964  14.0942469  49.0244898  57.6424758  12.6201640  48.7039859
  57.1809910  15.3050771  53.0840535  57.8081949  14.9227848  53.6978059
  56.3237829  15.0864973  53.4496227  67.5804019  25.7113746  54.6894270
  68.1243923  26.3243704  54.1949225  66.9990864  26.2693325  55.2061283
  53.9575453  17.1127200  39.0158889  54.2528894  16.2037879  38.9625943
  53.0563489  17.0914940  38.6939892  65.8661532  28.8334464  45.8209298
  65.7412671  28.0324204  45.3120243  66.5240623  29.3280658  45.3323268
  57.4869700  15.1883197  44.9986438  56.7656286  15.8019164  44.8593911
  58.2762956  15.7240961  44.9203084  67.9296440  26.6343484  47.4488848
  66.9826776  26.5148835  47.3767175  68.2779213  25.7465982  47.5315109
  60.2896014  12.5237623  51.2727090  60.8130416  12.7699920  52.0353399
  60.0708347  13.3557658  50.8530227  55.6863295  14.7941298  39.1398215
  55.3576001  13.9138677  38.9573320  56.0402665  14.7388966  40.0274604
  64.9342874  26.4296200  43.6493200  64.7867836  25.5012908  43.8300770
  65.7596367  26.4516291  43.1650275  58.8005118  15.0814268  39.5073692
  59.1401190  15.6100189  38.7852301  59.2477238  15.4194674  40.2832259
  68.5376995  27.2524759  44.7358073  69.4623543  27.0467621  44.5982524
  68.3692299  27.0041160  45.6447414  61.4948559  13.4651318  48.9576760
  61.1545379  12.6659131  49.3597440  60.7887565  13.7653029  48.3853593
  62.1465031  10.5500631  47.4104083  62.9691100  10.0761109  47.2882974
  62.3903094  11.3291114  47.9102770  60.7873265  13.5788889  37.7066985
  61.5081628  13.9570142  37.2030702  60.1638569  14.2977766  37.8101963
  64.9304388  14.2834038  38.6425317  65.1468002  15.1658676  38.3414145
  64.4498455  13.8920252  37.9130959  59.6703609  17.2419751  45.2196062
  59.5248190  17.5560054  46.1120343  59.1928813  17.8604652  44.6666961
  61.5299992  14.2322299  45.2676951  61.5161561  13.3363393  44.9309249
  62.2472420  14.2392963  45.9015237  63.3826123  14.6659640  47.3130079
  63.1243901  15.5876710  47.3114409  62.8511163  14.2690074  48.0030543
  68.3272312  27.7710427  40.0920164  68.5009189  27.2056849  39.3394017
  68.8201203  28.5711322  39.9099654  54.1449271  19.7825096  48.1583723
  53.6002740  20.5584904  48.2903997  55.0228621  20.1295900  48.0002845
  60.9336888  13.1136680  40.5364522  61.0552799  12.1853326  40.7355409
  60.6438931  13.1275366  39.6242837  63.8028079  10.7991590  43.6731241
  63.8249775  10.8630923  42.7183221  64.2196138   9.9596099  43.8671748
  74.1811703  20.5346850  41.7110464  74.6242849  19.7854175  41.3129587
  73.3038213  20.5256986  41.3284196  69.3147484  27.0877191  37.1917063
  70.0098389  27.7083884  37.4104377  69.6570634  26.2372542  37.4669440
  54.9315293  18.9094992  51.0513880  54.1897029  19.0577627  51.6378510
  54.6108038  19.1703258  50.1880629  71.2138907  24.5376897  38.7204393
  71.7390231  24.8764169  37.9953713  71.1261260  23.6023912  38.5367528
  62.8758956  28.4510970  50.8494270  63.1846082  28.2060117  51.7216970
  63.6734438  28.6557609  50.3613140  62.8979568  30.6048880  43.0799646
  62.4584558  30.1125259  43.7732503  63.6487685  30.0621848  42.8391722
  55.3771907  26.7960421  43.0824275  56.2029927  26.4964193  42.7022918
  55.0265959  26.0268043  43.5314063  60.3453440  26.1486889  45.1521948
  59.7233449  25.4857594  44.8524176  61.0158307  26.1748021  44.4695596
  53.5780512  24.7146747  44.0413208  52.7412420  24.2868922  43.8597209
  53.5504158  24.9079191  44.9783999  60.4177968  14.6268677  54.7454454
  60.4666123  15.5030800  54.3632224  60.9600482  14.0846070  54.1726097
  70.9032813  25.1709800  54.0255591  70.1128357  25.1533939  53.4860091
  70.6666168  25.7098094  54.7804628  71.0230688  22.0202267  51.3388320
  71.0728693  21.8552274  52.2803843  70.9144612  21.1529526  50.9486201
  59.9066947  24.6990812  38.6280409  60.0555067  25.3826277  37.9747081
  60.7133391  24.6795902  39.1429864  68.3134451  18.0033195  52.6547627
  69.2144314  17.8639659  52.3631624  68.3882425  18.1687649  53.5945804
  62.6477256  15.3800049  51.5000813  61.7780566  15.6733615  51.2283401
  62.8836737  15.9640494  52.2208076  72.5248885  24.4399208  51.5830341
  72.2333694  24.8029189  52.4193802  71.9121017  23.7266216  51.4043673
  73.7244568  22.0052088  44.1032912  74.5591459  22.4441892  44.2670472
  73.8603696  21.5290741  43.2841157  70.7736073  19.5631823  50.0510399
  71.2490195  19.7559469  49.2429251  69.8501639  19.6191009  49.8053783
  57.6619580  20.7255990  39.6341478  57.4165622  19.8218320  39.8321688
  57.8315495  20.7273140  38.6920956  65.3516290  11.5979666  49.0166233
  65.8698234  12.3340693  48.6912722  64.9971423  11.9043660  49.8512992
  56.9315228  16.4584348  37.1327639  56.2384473  16.5328702  36.4767675
  56.6866980  15.6944691  37.6549156  65.6028884   8.0179949  44.5367130
  65.8830638   7.3503138  45.1627556  66.3879491   8.2109044  44.0241794
  63.4062353  27.1938943  36.0992156  62.8336320  27.8129130  35.6462628
  63.9795146  27.7438304  36.6332078  69.4737742  16.4397583  48.2838705
  70.4255165  16.5395680  48.3050929  69.3041193  15.6475851  48.7936789
  67.4952122  13.5253166  48.4698106  66.9002054  13.8058179  47.7744594
  67.2101819  14.0147067  49.2414847  66.6259612  27.4776093  37.2300738
  67.5590286  27.4121655  37.4333614  66.5382825  28.3132360  36.7715271
  69.2547629  26.7941963  34.1904686  69.1761261  26.4601827  35.0840444
  70.0757296  27.2863731  34.1896158  71.9525820  19.6603703  47.3981005
  71.9202140  18.7219703  47.5840688  72.5626444  19.7387739  46.6646829
  63.7909151  18.5299756  33.4408209  64.7368256  18.4005964  33.5096627
  63.4123396  17.7914417  33.9177637  72.1020309  16.4514746  47.4439288
  71.5859357  15.6673203  47.2569217  72.9860257  16.1233463  47.6085807
  69.7631036  10.1955762  43.4035100  69.5655857   9.8870850  44.2878432
  70.3730741  10.9217400  43.5333030  77.7702370  20.7219709  46.5387041
  78.5005759  20.4604997  47.0994745  77.1609316  19.9848431  46.5789109
  75.8517667  18.8627572  47.1361493  75.1250831  18.7283537  46.5277984
  75.4364954  19.1704401  47.9418211  63.6747844  22.5817502  54.9008866
  64.5950853  22.7596101  55.0948912  63.6397427  21.6373547  54.7488565
  61.9752068  16.4549732  33.3763094  61.0683524  16.1582845  33.4525807
  62.2528049  16.1579550  32.5097380  52.8930009  17.7756095  43.8262140
  52.5732793  16.9221403  43.5336514  52.3463437  17.9904673  44.5820108
  56.6709916  20.4918536  47.5431647  56.8895926  21.4235644  47.5619681
  57.0835690  20.1326511  48.3286451  63.5914134  10.9986622  39.5307335
  62.7814862  10.6533707  39.9062581  64.2798551  10.6894165  40.1194947
  65.5204682  10.0764668  41.1531632  66.0735721  10.4960122  41.8121655
  65.7574769   9.1500417  41.1954588  61.5437782  16.0651742  56.9334396
  61.4434508  17.0146099  56.8646487  61.3259324  15.7369981  56.0610466
  60.7450853  13.3136667  33.5175073  61.6070017  13.6391565  33.7770890
  60.9301197  12.5268163  33.0048139  52.7618269  21.3959007  45.7955262
  52.0681740  20.9812960  45.2825216  53.5091260  21.4379543  45.1988681
  68.8983489  12.1865194  40.6610296  68.3182158  12.8449998  40.2788348
  68.6319422  11.3642538  40.2497714  67.3487056  11.5870251  42.8631616
  67.8486834  11.6986786  42.0545935  67.9922664  11.2831304  43.5032425
  61.4069052  19.4948881  55.7499457  60.9236133  20.2949241  55.9563346
  61.4929991  19.5056826  54.7966901  54.6755011  21.3277261  43.6721277
  54.6525699  21.4264948  42.7203160  54.9855648  22.1742411  43.9938443
  57.3342389  23.3853416  47.7867891  58.2885643  23.3537358  47.7197823
  57.1354913  22.9244039  48.6018117  57.9241771  21.9554532  50.3538689
  58.7434660  22.4498610  50.3773526  58.1978579  21.0386500  50.3256256
  67.6808367  14.3465284  39.7166644  66.7934222  14.6314935  39.4986839
  68.0962356  14.1859047  38.8693921  71.0322904  14.3711805  43.4320984
  71.8083294  14.8608257  43.7045600  70.3071038  14.7969859  43.8892853
  73.4695462  15.0839424  44.4894924  74.0639953  14.8435160  43.7788232
  73.5422046  14.3646555  45.1168460  55.6892618  28.9273035  44.8038089
  55.5547086  28.1673436  44.2376087  55.2724680  29.6513935  44.3366878
  66.8251581  24.1109959  33.8114664  67.5287431  24.3159961  34.4272320
  66.1014230  24.6786721  34.0763748  67.6549391  19.8619820  39.9316934
  67.5984593  20.3188371  39.0924567  68.2077734  19.1010504  39.7539777
  71.4654197  15.6509552  40.7567054  71.2091131  15.2506187  41.5875262
  70.8407065  16.3653346  40.6317193  75.7766535  18.3905625  43.2638345
  75.2166093  18.4598814  44.0369907  75.1710038  18.2146610  42.5437842
  58.8461744  29.8242352  45.0156532  58.7294128  30.7687785  44.9135222
  58.0254190  29.5215914  45.4042331  68.7338278  24.5492488  35.8613124
  69.5683882  24.1173686  35.6790599  68.5722621  24.3774502  36.7890019
  68.3884170  21.0524601  37.2269464  68.3332974  20.8868873  36.2857908
  67.7630226  21.7600634  37.3831653  53.1776685  16.2892666  51.0530886
  53.8235549  15.7791619  51.5418111  52.9693837  17.0261347  51.6274311
  65.7030078  23.3573513  56.5523026  66.5721237  23.5314165  56.1909661
  65.2236829  24.1767930  56.4298756  61.6980296  10.5532710  36.8054782
  61.6858966  11.4974550  36.9623053  62.5903718  10.3702856  36.5114243
  59.8716258  30.4770614  48.2312460  60.7743505  30.5094224  48.5478955
  59.6453628  29.5471065  48.2458796  61.6269860  29.2301601  44.8922539
  60.6765491  29.2303462  44.7786911  61.9302346  28.4834335  44.3758573
  65.5132415   7.1475487  41.0600719  64.7464811   6.5933973  41.2057401
  65.9243120   7.2197356  41.9214870  57.5174176  13.4360283  55.1505900
  58.3805638  13.0797087  55.3609225  56.9439587  13.0974177  55.8381304
  77.3622553  35.0662139  45.9568301  78.0000963  34.9468886  45.2531641
  77.2443396  36.0142983  46.0156253  74.1712260  35.0189567  45.8929826
  73.8330771  34.9030632  45.0050361  75.0402028  34.6180732  45.8730832
  70.0299075  36.8725043  41.8826717  69.4663940  36.7814980  41.1143004
  69.9151470  36.0524948  42.3629209  74.6532043  36.1724419  51.8516031
  74.6420683  35.7777217  50.9796535  74.8152682  35.4390491  52.4449803
  67.5763507  38.3676235  44.7210937  68.3684799  38.0267060  44.3057237
  67.8160157  38.4771210  45.6413091  75.6098634  40.5396011  37.1941182
  74.9586614  41.1250092  36.8075195  76.4042997  41.0702206  37.2536219
  69.5354261  37.6285148  37.5928316  70.3085137  37.0814135  37.4541192
  69.8879660  38.4929398  37.8042777  71.3739304  38.9561531  50.7995215
  71.0829170  39.8607161  50.6841882  72.0096288  38.9978058  51.5139285
  72.2995511  36.3338379  47.3896575  72.8959083  36.1094401  46.6753538
  72.3570482  35.5923125  47.9922023  71.8720539  33.7877814  35.2246766
  72.1246060  33.2659336  34.4630229  70.9345098  33.6243960  35.3273450
  76.9163822  32.7913593  43.0321509  77.7026911  32.3733016  42.6811926
  77.1802526  33.6959685  43.2003158  77.0873899  38.2286443  37.7310166
  76.4519732  38.3021070  38.4431071  76.7571306  38.8180042  37.0529245
  82.3172249  32.7288826  43.9354488  83.0497421  32.1588043  44.1692317
  81.5611605  32.3410426  44.3760993  71.5916828  35.6905920  37.4271141
  71.4753086  35.0150824  38.0952225  71.7019088  35.2038294  36.6103294
  73.9348369  35.1516067  41.1317830  73.5706576  34.6246688  41.8430752
  74.7915485  34.7614537  40.9584316  79.8397669  26.4410400  48.3949096
  79.5080994  27.3105811  48.1710311  79.2443283  26.1246684  49.0743127
  73.5753856  30.1805967  36.1279179  73.7428258  31.0486204  36.4949650
  73.3851025  30.3433249  35.2040468  76.3329189  38.6422946  47.7945009
  76.0329912  39.5447985  47.6860816  75.9880248  38.3755129  48.6466162
  69.7841670  35.0936743  43.8281713  68.8592167  34.9612957  44.0359405
  70.0326084  35.8730962  44.3251656  79.7326333  31.1605486  45.4742446
  78.8243210  31.0920895  45.1801207  79.6813928  31.6377431  46.3024272
  73.5543077  32.6363625  37.1125845  73.4342702  33.0820675  37.9511326
  72.8595665  32.9848942  36.5539384  67.1450481  34.7370016  44.6625502
  67.2742863  34.9904495  45.5764914  66.4647933  35.3297724  44.3430158
  73.8067198  32.5795132  53.4177344  73.0300533  33.1389052  53.4080208
  74.4457761  33.0651915  53.9392214  81.5987979  29.3621925  47.2520320
  80.9562359  29.6554458  46.6060115  81.0942908  29.2474845  48.0573517
  79.2528143  33.1085098  37.9406179  80.1645999  33.3412485  37.7653877
  78.7437790  33.6922142  37.3781258  72.0613571  35.3880585  52.9795311
  72.8028255  35.9265629  52.7030134  71.3550556  36.0146874  53.1366862
  77.5368910  37.5309726  51.5767472  77.9452266  37.0892136  50.8322104
  76.8146172  36.9562353  51.8301665  73.8899980  32.4682332  48.9501029
  74.7361176  32.8921746  49.0935678  73.8298618  31.8115957  49.6439592
  77.8597725  38.0910916  45.3319761  77.2306587  38.2556630  44.6295829
  77.4723387  38.5052526  46.1030725  81.7386957  39.0265354  42.6864125
  81.0537995  39.4064256  42.1361158  81.8230806  39.6360681  43.4196072
  77.0399426  30.1286701  50.6082203  76.7960358  30.8828761  50.0716478
  77.3159356  30.5072048  51.4429450  78.9937889  36.6725313  49.2859468
  79.2054784  37.3157073  48.6093849  78.9467637  35.8387630  48.8181398
  76.5964117  29.2843134  46.1896040  75.7348597  29.5824387  46.4812778
  76.6226552  29.5013533  45.2577073  73.4125687  37.8285324  42.5969846
  73.8764032  38.1073027  41.8074469  73.1482485  36.9268769  42.4142937
  70.3049768  37.3756806  45.5349609  70.8751125  37.8044074  44.8967094
  70.8957880  37.0939391  46.2333795  72.3494573  33.9508477  39.4059411
  73.0518616  34.4029520  39.8733338  72.0175201  33.3092296  40.0339304
  70.7974934  32.5420233  53.7810621  70.1673595  33.2236514  54.0146017
  70.6911022  32.4303315  52.8363759  66.0919907  32.2092029  44.7076545
  65.3018961  32.4649558  44.2316655  66.5831154  33.0240367  44.8128585
  80.1083716  39.5497269  47.4581826  80.9301160  39.1477456  47.1764507
  80.1046119  39.4465503  48.4097941  68.0434652  32.5736609  41.6660021
  67.2465816  32.6855303  42.1843517  67.8160245  32.9123261  40.8000912
  73.8740320  39.0981312  49.6142536  73.9384752  39.5601719  50.4500708
  73.1651244  38.4678677  49.7424846  64.3757610  32.4622520  47.1391536
  64.6265648  33.3469530  47.4049111  64.9117158  32.2827121  46.3666627
  88.1989710  35.8936017  43.8066797  87.4453418  35.3243415  43.6510801
  88.3337251  35.8598682  44.7537432  73.5888338  40.7649419  39.4821516
  73.4534012  41.6100955  39.9106364  74.1298150  40.9668697  38.7187450
  70.0755677  26.8440999  56.1435872  69.6822623  26.2907198  56.8183516
  70.8921818  27.1551578  56.5342389  67.0417735  38.2824857  40.0549441
  67.5542256  39.0768108  40.2055006  67.6940448  37.5851148  39.9883043
  68.8512620  41.3990614  42.1372195  69.0279248  42.3208578  41.9493179
  69.6469453  41.0849033  42.5666574  72.9923638  28.2598878  53.7356128
  73.7333352  28.8606031  53.6560591  73.2241561  27.5176516  53.1774171
  68.1364976  33.4455246  52.0134358  68.0218491  32.5440503  52.3141457
  67.2809494  33.6918942  51.6619174  75.2156814  41.3872986  53.6121858
  74.7720668  40.6009364  53.2942763  75.8774028  41.5752136  52.9465749
  77.3138052  41.6675786  51.6403260  77.2956527  42.4884667  51.1483529
  78.2357972  41.5429861  51.8653401  73.7711106  39.1819915  52.4826768
  74.3039443  38.4208203  52.2526076  73.2425187  38.8893567  53.2250923
  76.9380801  24.2879981  48.0120410  76.5945071  25.1781623  47.9359520
  77.3059764  24.0981639  47.1489995  65.0066652  36.6113512  40.8309012
  65.8441874  37.0210520  40.6142720  65.1844919  35.6712954  40.8009206
  76.9031084  34.2788592  36.5192845  76.3877707  35.0493197  36.7581232
  76.6308392  33.6053729  37.1425906  74.4878195  29.1238293  41.5778083
  73.6319791  28.7345144  41.3983722  74.9005147  29.2030254  40.7177869
  76.0177342  26.6584636  45.9769643  75.5142137  26.6214772  45.1637448
  76.3107948  27.5677379  46.0366300  72.2620227  26.7423366  44.9835825
  73.1273224  26.5466175  44.6241714  72.3297736  26.5133718  45.9105182
  81.8765358  37.0320947  38.4546018  81.0994801  36.6932107  38.0101181
  82.5556839  37.0373570  37.7800984  76.6917387  32.1515684  38.3452626
  76.3867523  32.4661834  39.1962769  77.6447829  32.2297104  38.3879959
  75.1363819  38.3105908  39.9945580  74.6085180  37.5758667  39.6818818
  74.6351322  39.0880584  39.7485548  80.1156665  36.5054928  45.1112626
  79.4580339  37.1954190  45.1992755  80.9197064  36.8951360  45.4546613
  69.8682547  28.9725574  42.3552192  70.4426298  28.7500756  41.6225385
  70.4553529  29.0414269  43.1080793  78.9262124  34.8599301  43.1616568
  79.4394005  35.4929293  43.6638278  79.5763348  34.2600496  42.7959928
  70.1952134  31.0030035  36.3748077  69.3589446  31.3404722  36.6957352
  70.0556903  30.8679015  35.4375214  72.1705214  25.8466823  41.0827261
  71.5169627  25.5315840  40.4583876  72.1285688  25.2242563  41.8087084
  73.2816419  36.1286118  32.9980553  72.3743481  35.8975371  33.1971702
  73.7787451  35.3323737  33.1854535  76.1884498  44.8383625  35.9177239
  75.5146197  45.1415322  36.5262197  76.5750320  45.6412706  35.5682696
  75.4042955  32.3348757  45.4074909  74.4865516  32.5563704  45.2496597
  75.8203098  32.4095067  44.5486616  76.1878002  33.7340172  40.5377589
  76.9349821  34.2461569  40.2284711  76.4569592  33.4124225  41.3981983
  74.4604653  36.2298713  37.5204543  73.5515872  35.9457746  37.6177013
  74.4899736  36.6497791  36.6607850  79.6923920  39.8405302  41.2895711
  79.2386247  38.9996212  41.3460901  79.0617887  40.4766701  41.6270491
  78.6356839  30.7697288  42.5196378  77.8979596  30.2574675  42.8506621
  78.8883613  30.3297670  41.7079655  78.1356859  41.6781799  42.2245529
  78.4279834  42.2386856  41.5057895  78.6455480  41.9710360  42.9798688
  78.7368467  23.5473540  43.1138148  79.0427344  22.6870904  42.8264063
  79.4621072  24.1391161  42.9137141  65.0292823  33.9504227  41.5019745
  64.8317223  33.3573588  40.7770812  64.4739487  33.6456437  42.2195684
  73.0089547  33.8427334  43.6214339  73.0638156  32.8901170  43.5456815
  72.1980749  33.9986773  44.1055637  74.1580740  37.7707457  34.8592622
  73.7200170  37.0543316  34.3998259  74.8991181  37.9983571  34.2977713
  70.9481906  32.4604393  41.3804717  70.1349772  32.7598564  41.7869910
  71.4440901  32.0660082  42.0979200  73.0990484  42.4562150  43.3138982
  73.0566663  42.6822996  42.3847514  74.0153183  42.2225525  43.4624783
  76.5456118  32.9246218  50.2119611  76.9005506  33.1517691  51.0714077
  77.1928249  33.2564595  49.5896867  82.2753855  36.0464654  40.9168940
  82.1371754  36.2366250  39.9890130  81.9190074  36.8084036  41.3736992
  70.4395981  30.0322749  46.9965952  71.0795361  29.8911508  46.2988916
  69.6073512  29.7457262  46.6204554  82.3023235  38.1141181  45.9280212
  82.7359741  38.0216470  46.7763266  83.0154815  38.0898681  45.2900228
  71.2156285  39.3325179  43.1100945  72.0096884  38.8375499  42.9083520
  70.5047978  38.8043042  42.7468650  76.0351130  41.7143275  47.4613313
  76.0888152  42.2834211  48.2291028  75.1665911  41.8845160  47.0967350
  67.5239049  33.4768261  39.1860698  66.5936637  33.4152716  39.4030660
  67.6196521  32.9544214  38.3897339  67.4424598  30.0023074  41.7738939
  67.7031415  30.9168407  41.6648100  68.2641770  29.5347516  41.9235552
  68.9149523  31.4160831  48.9437764  69.5872576  31.2078193  48.2950413
  68.0879310  31.2182917  48.5042996  83.1638784  38.1564881  48.4613097
  83.3574674  39.0610692  48.7072372  83.0639402  37.6972300  49.2951682
  74.8175095  28.0422772  50.9603425  74.1703010  28.7412722  50.8667901
  75.5876110  28.4758916  51.3279673  78.2253893  38.3071624  54.0353978
  78.0739399  38.0782176  53.1184062  78.2158572  39.2642225  54.0485323
  74.9939229  35.8803537  49.0200244  75.9231289  36.0314696  48.8469212
  74.5730259  35.9687558  48.1648891  73.7927561  39.9054201  46.7898782
  73.6538647  39.5372986  47.6624720  73.0042157  40.4201841  46.6182740
  74.3875713  45.0063298  38.1324319  74.5627469  44.5351341  38.9469941
  73.7008501  45.6329064  38.3605579  75.3432776  39.2835804  44.1787620
  75.0082609  39.2436574  45.0745270  74.8436722  38.6180520  43.7058030
  69.3177020  34.6903434  49.7040201  69.1796818  33.9583673  50.3051740
  70.2281944  34.6012334  49.4224389  78.2791968  36.6291838  34.4524679
  77.6621139  35.9038666  34.3557732  77.8108456  37.3901199  34.1091754
  71.9459321  34.4023393  49.1923881  72.6558939  33.7616585  49.1510499
  71.9028629  34.6536288  50.1150061  79.9346100  41.3390747  52.1130460
  79.8758646  40.6549967  51.4461043  80.3365618  42.0809737  51.6611086
  70.6588255  31.3888611  51.0119520  70.1225612  30.9379350  51.6641116
  70.0704963  31.5234520  50.2689984  70.0690514  30.8477263  33.5745984
  69.1919980  30.7266063  33.2108230  70.5448267  30.0563341  33.3224872
  79.9363507  39.3030331  50.3444439  79.0490286  38.9656252  50.4670838
  80.5062058  38.5713362  50.5813205  61.5892654  35.6354422  43.6687491
  62.2763694  35.3216152  43.0808506  61.4340783  36.5395787  43.3954742
  66.3927376  30.5244619  48.0972515  66.3085565  29.9170288  47.3622924
  65.5710083  31.0153637  48.0982011  73.4664660  43.9631783  47.3105683
  73.3934832  44.7686754  47.8224987  73.0242053  44.1623749  46.4853704
  73.2554440  43.2003553  40.8208504  72.4721962  43.7425233  40.9146729
  73.9547185  43.7177533  41.2202745  76.5651090  29.0098182  43.4642710
  77.0619790  28.2568145  43.1443780  75.7938071  29.0462499  42.8985919
  84.4180847  34.7138548  45.1061001  84.4070724  35.5963263  44.7354934
  83.5498227  34.3610099  44.9115538  75.9263344  43.8618617  49.4663841
  76.6391316  44.4966082  49.3939743  75.4353372  43.9582483  48.6503843
  77.6480871  37.7669870  41.0381133  76.7137149  37.8871332  40.8685837
  77.8257539  36.8642336  40.7741143  73.1486059  31.1515565  43.1914394
  72.7783846  30.5986606  43.8795300  73.6445151  30.5473699  42.6389394
  81.0353422  33.6087189  41.5731167  81.5013874  34.4415180  41.4991470
  81.4860923  33.1432170  42.2776426  70.9775257  41.6113060  50.2869412
  71.6784717  42.2449543  50.4398806  70.5070372  41.9527792  49.5265051
  79.1029653  39.9531010  38.5717319  79.3789497  39.8387605  39.4811193
  78.2334152  39.5548495  38.5329492  79.0070085  25.9767776  45.6122068
  78.0933165  26.2072003  45.7804275  79.4363186  26.0606220  46.4636101
  78.7776543  34.1657668  48.1121963  78.1247994  34.4133575  47.4574415
  79.1556923  33.3521806  47.7784440  75.7383717  44.2017361  42.2150133
  75.9206112  43.3839017  42.6777885  76.5616703  44.4185053  41.7775023
  76.0725883  43.1285546  39.4765181  76.6013649  42.6178001  38.8635343
  76.3354102  42.8128076  40.3410714  74.8264116  34.9077479  54.5988000
  74.1504753  34.8071608  55.2690375  75.6491750  34.7516693  55.0623997
  66.5742975  41.1449415  47.2200515  67.1596412  40.3993103  47.3528419
  66.3767814  41.4553372  48.1037179  69.4281631  44.1800663  42.2362957
  68.7592006  44.6646790  41.7526997  69.2894500  44.4269883  43.1506336
  61.1660630  33.7155016  45.9404958  61.2044730  33.1818606  46.7342076
  60.6600923  33.1890221  45.3215935  68.5451392  28.5619556  49.4367500
  68.6092719  29.4234387  49.0244898  68.4818513  27.9493558  48.7039859
  68.0203665  30.6342689  53.0840535  68.6475704  30.2519766  53.6978059
  67.1631584  30.4156891  53.4496227  78.4197773  41.0405664  54.6894270
  78.9637677  41.6535622  54.1949225  77.8384618  41.5985242  55.2061283
  64.7969208  32.4419118  39.0158889  65.0922649  31.5329796  38.9625943
  63.8957243  32.4206857  38.6939892  76.7055286  44.1626382  45.8209298
  76.5806426  43.3616122  45.3120243  77.3634378  44.6572575  45.3323268
  68.3263455  30.5175114  44.9986438  67.6050040  31.1311082  44.8593911
  69.1156710  31.0532879  44.9203084  78.7690195  41.9635402  47.4488848
  77.8220530  41.8440753  47.3767175  79.1172968  41.0757900  47.5315109
  71.1289768  27.8529541  51.2727090  71.6524170  28.0991837  52.0353399
  70.9102101  28.6849576  50.8530227  66.5257049  30.1233215  39.1398215
  66.1969755  29.2430594  38.9573320  66.8796420  30.0680884  40.0274604
  75.7736628  41.7588118  43.6493200  75.6261591  40.8304826  43.8300770
  76.5990122  41.7808209  43.1650275  69.6398872  30.4106185  39.5073692
  69.9794945  30.9392106  38.7852301  70.0870993  30.7486591  40.2832259
  79.3770750  42.5816677  44.7358073  80.3017297  42.3759538  44.5982524
  79.2086053  42.3333078  45.6447414  72.3342313  28.7943236  48.9576760
  71.9939134  27.9951049  49.3597440  71.6281320  29.0944947  48.3853593
  72.9858785  25.8792548  47.4104083  73.8084854  25.4053027  47.2882974
  73.2296849  26.6583032  47.9102770  71.6267020  28.9080807  37.7066985
  72.3475382  29.2862060  37.2030702  71.0032324  29.6269684  37.8101963
  75.7698142  29.6125956  38.6425317  75.9861757  30.4950594  38.3414145
  75.2892210  29.2212169  37.9130959  70.5097364  32.5711669  45.2196062
  70.3641945  32.8851972  46.1120343  70.0322567  33.1896569  44.6666961
  72.3693747  29.5614217  45.2676951  72.3555315  28.6655310  44.9309249
  73.0866175  29.5684881  45.9015237  74.2219877  29.9951557  47.3130079
  73.9637655  30.9168628  47.3114409  73.6904918  29.5981992  48.0030543
  79.1666066  43.1002344  40.0920164  79.3402944  42.5348767  39.3394017
  79.6594957  43.9003239  39.9099654  64.9843026  35.1117013  48.1583723
  64.4396494  35.8876821  48.2903997  65.8622376  35.4587818  48.0002845
  71.7730643  28.4428597  40.5364522  71.8946554  27.5145243  40.7355409
  71.4832685  28.4567283  39.6242837  74.6421833  26.1283508  43.6731241
  74.6643530  26.1922841  42.7183221  75.0589892  25.2888016  43.8671748
  85.0205457  35.8638767  41.7110464  85.4636603  35.1146092  41.3129587
  84.1431968  35.8548904  41.3284196  80.1541239  42.4169109  37.1917063
  80.8492143  43.0375801  37.4104377  80.4964389  41.5664460  37.4669440
  65.7709048  34.2386910  51.0513880  65.0290784  34.3869545  51.6378510
  65.4501792  34.4995175  50.1880629  82.0532662  39.8668814  38.7204393
  82.5783986  40.2056087  37.9953713  81.9655014  38.9315830  38.5367528
  73.7152710  43.7802888  50.8494270  74.0239837  43.5352035  51.7216970
  74.5128193  43.9849526  50.3613140  73.7373323  45.9340798  43.0799646
  73.2978313  45.4417176  43.7732503  74.4881439  45.3913765  42.8391722
  66.2165662  42.1252338  43.0824275  67.0423681  41.8256110  42.7022918
  65.8659714  41.3559961  43.5314063  71.1847195  41.4778807  45.1521948
  70.5627204  40.8149512  44.8524176  71.8552062  41.5039939  44.4695596
  64.4174267  40.0438665  44.0413208  63.5806175  39.6160839  43.8597209
  64.3897912  40.2371108  44.9783999  71.2571722  29.9560595  54.7454454
  71.3059878  30.8322717  54.3632224  71.7994236  29.4137988  54.1726097
  81.7426568  40.5001718  54.0255591  80.9522112  40.4825857  53.4860091
  81.5059922  41.0390012  54.7804628  81.8624443  37.3494184  51.3388320
  81.9122448  37.1844192  52.2803843  81.7538366  36.4821443  50.9486201
  70.7460702  40.0282730  38.6280409  70.8948822  40.7118194  37.9747081
  71.5527145  40.0087820  39.1429864  79.1528205  33.3325112  52.6547627
  80.0538068  33.1931577  52.3631624  79.2276180  33.4979567  53.5945804
  73.4871011  30.7091967  51.5000813  72.6174320  31.0025533  51.2283401
  73.7230491  31.2932412  52.2208076  83.3642640  39.7691126  51.5830341
  83.0727448  40.1321106  52.4193802  82.7514771  39.0558134  51.4043673
  84.5638322  37.3344006  44.1032912  85.3985213  37.7733810  44.2670472
  84.6997451  36.8582659  43.2841157  81.6129828  34.8923740  50.0510399
  82.0883950  35.0851387  49.2429251  80.6895393  34.9482926  49.8053783
  68.5013335  36.0547908  39.6341478  68.2559377  35.1510238  39.8321688
  68.6709249  36.0565058  38.6920956  76.1910044  26.9271584  49.0166233
  76.7091988  27.6632611  48.6912722  75.8365177  27.2335577  49.8512992
  67.7708982  31.7876265  37.1327639  67.0778227  31.8620620  36.4767675
  67.5260734  31.0236609  37.6549156  76.4422639  23.3471867  44.5367130
  76.7224392  22.6795056  45.1627556  77.2273246  23.5400962  44.0241794
  74.2456107  42.5230860  36.0992156  73.6730074  43.1421048  35.6462628
  74.8188901  43.0730222  36.6332078  80.3131497  31.7689501  48.2838705
  81.2648920  31.8687598  48.3050929  80.1434947  30.9767769  48.7936789
  78.3345876  28.8545084  48.4698106  77.7395809  29.1350096  47.7744594
  78.0495573  29.3438985  49.2414847  77.4653367  42.8068011  37.2300738
  78.3984040  42.7413572  37.4333614  77.3776580  43.6424277  36.7715271
  80.0941384  42.1233881  34.1904686  80.0155015  41.7893744  35.0840444
  80.9151050  42.6155649  34.1896158  82.7919575  34.9895620  47.3981005
  82.7595895  34.0511621  47.5840688  83.4020198  35.0679657  46.6646829
  74.6302906  33.8591673  33.4408209  75.5762010  33.7297881  33.5096627
  74.2517151  33.1206335  33.9177637  82.9414063  31.7806664  47.4439288
  82.4253112  30.9965120  47.2569217  83.8254012  31.4525380  47.6085807
  80.6024790  25.5247679  43.4035100  80.4049611  25.2162767  44.2878432
  81.2124496  26.2509318  43.5333030  88.6096125  36.0511627  46.5387041
  89.3399513  35.7896915  47.0994745  88.0003070  35.3140349  46.5789109
  86.6911422  34.1919490  47.1361493  85.9644585  34.0575455  46.5277984
  86.2758709  34.4996318  47.9418211  74.5141598  37.9109419  54.9008866
  75.4344608  38.0888018  55.0948912  74.4791181  36.9665465  54.7488565
  72.8145823  31.7841650  33.3763094  71.9077278  31.4874762  33.4525807
  73.0921804  31.4871468  32.5097380  63.7323763  33.1048013  43.8262140
  63.4126548  32.2513321  43.5336514  63.1857191  33.3196591  44.5820108
  67.5103671  35.8210454  47.5431647  67.7289680  36.7527562  47.5619681
  67.9229445  35.4618428  48.3286451  74.4307889  26.3278539  39.5307335
  73.6208617  25.9825624  39.9062581  75.1192305  26.0186083  40.1194947
  76.3598437  25.4056586  41.1531632  76.9129475  25.8252040  41.8121655
  76.5968523  24.4792334  41.1954588  72.3831536  31.3943660  56.9334396
  72.2828263  32.3438017  56.8646487  72.1653078  31.0661899  56.0610466
  71.5844607  28.6428585  33.5175073  72.4463771  28.9683483  33.7770890
  71.7694952  27.8560081  33.0048139  63.6012023  36.7250924  45.7955262
  62.9075495  36.3104877  45.2825216  64.3485014  36.7671461  45.1988681
  79.7377244  27.5157111  40.6610296  79.1575913  28.1741915  40.2788348
  79.4713177  26.6934456  40.2497714  78.1880810  26.9162169  42.8631616
  78.6880589  27.0278703  42.0545935  78.8316418  26.6123222  43.5032425
  72.2462806  34.8240799  55.7499457  71.7629888  35.6241159  55.9563346
  72.3323745  34.8348743  54.7966901  65.5148766  36.6569178  43.6721277
  65.4919454  36.7556866  42.7203160  65.8249402  37.5034329  43.9938443
  68.1736144  38.7145333  47.7867891  69.1279397  38.6829276  47.7197823
  67.9748667  38.2535957  48.6018117  68.7635526  37.2846449  50.3538689
  69.5828415  37.7790528  50.3773526  69.0372333  36.3678417  50.3256256
  78.5202122  29.6757202  39.7166644  77.6327977  29.9606852  39.4986839
  78.9356111  29.5150965  38.8693921  81.8716658  29.7003723  43.4320984
  82.6477048  30.1900175  43.7045600  81.1464792  30.1261777  43.8892853
  84.3089217  30.4131342  44.4894924  84.9033707  30.1727078  43.7788232
  84.3815800  29.6938472  45.1168460  66.5286372  44.2564953  44.8038089
  66.3940840  43.4965354  44.2376087  66.1118435  44.9805853  44.3366878
  77.6645335  39.4401876  33.8114664  78.3681185  39.6451879  34.4272320
  76.9407984  40.0078638  34.0763748  78.4943146  35.1911738  39.9316934
  78.4378347  35.6480289  39.0924567  79.0471488  34.4302422  39.7539777
  82.3047952  30.9801469  40.7567054  82.0484886  30.5798105  41.5875262
  81.6800820  31.6945263  40.6317193  86.6160289  33.7197543  43.2638345
  86.0559847  33.7890732  44.0369907  86.0103793  33.5438527  42.5437842
  79.5732033  39.8784405  35.8613124  80.4077637  39.4465604  35.6790599
  79.4116376  39.7066419  36.7890019  79.2277925  36.3816519  37.2269464
  79.1726729  36.2160790  36.2857908  78.6023980  37.0892552  37.3831653
  64.0170440  31.6184583  51.0530886  64.6629304  31.1083537  51.5418111
  63.8087591  32.3553265  51.6274311  76.5423832  38.6865431  56.5523026
  77.4114992  38.8606083  56.1909661  76.0630584  39.5059847  56.4298756
  72.5374050  25.8824628  36.8054782  72.5252720  26.8266468  36.9623053
  73.4297472  25.6994773  36.5114243  76.3526170  22.4767404  41.0600719
  75.5858566  21.9225891  41.2057401  76.7636875  22.5489273  41.9214870
  68.3567931  28.7652200  55.1505900  69.2199392  28.4089005  55.3609225
  67.7833342  28.4266095  55.8381304  88.2016308  50.3954057  45.9568301
  88.8394718  50.2760804  45.2531641  88.0837151  51.3434901  46.0156253
  85.0106014  50.3481485  45.8929826  84.6724526  50.2322549  45.0050361
  85.8795782  49.9472650  45.8730832  80.8692830  52.2016961  41.8826717
  80.3057695  52.1106898  41.1143004  80.7545225  51.3816866  42.3629209
  85.4925797  51.5016336  51.8516031  85.4814438  51.1069135  50.9796535
  85.6546437  50.7682409  52.4449803  78.4157262  53.6968153  44.7210937
  79.2078554  53.3558977  44.3057237  78.6553912  53.8063128  45.6413091
  86.4492389  55.8687929  37.1941182  85.7980368  56.4542009  36.8075195
  87.2436751  56.3994124  37.2536219  80.3748016  52.9577066  37.5928316
  81.1478892  52.4106053  37.4541192  80.7273415  53.8221315  37.8042777
  82.2133058  54.2853448  50.7995215  81.9222924  55.1899079  50.6841882
  82.8490043  54.3269976  51.5139285  83.1389265  51.6630297  47.3896575
  83.7352837  51.4386319  46.6753538  83.1964237  50.9215042  47.9922023
  82.7114294  49.1169732  35.2246766  82.9639814  48.5951253  34.4630229
  81.7738853  48.9535878  35.3273450  87.7557576  48.1205510  43.0321509
  88.5420666  47.7024934  42.6811926  88.0196281  49.0251603  43.2003158
  87.9267654  53.5578361  37.7310166  87.2913487  53.6312987  38.4431071
  87.5965060  54.1471960  37.0529245  93.1566003  48.0580744  43.9354488
  93.8891175  47.4879960  44.1692317  92.4005359  47.6702344  44.3760993
  82.4310582  51.0197838  37.4271141  82.3146840  50.3442741  38.0952225
  82.5412842  50.5330212  36.6103294  84.7742123  50.4807985  41.1317830
  84.4100330  49.9538606  41.8430752  85.6309239  50.0906454  40.9584316
  90.6791424  41.7702318  48.3949096  90.3474749  42.6397729  48.1710311
  90.0837037  41.4538602  49.0743127  84.4147610  45.5097885  36.1279179
  84.5822013  46.3778121  36.4949650  84.2244779  45.6725167  35.2040468
  87.1722943  53.9714864  47.7945009  86.8723666  54.8739903  47.6860816
  86.8274003  53.7047047  48.6466162  80.6235425  50.4228661  43.8281713
  79.6985921  50.2904875  44.0359405  80.8719838  51.2022880  44.3251656
  90.5720087  46.4897404  45.4742446  89.6636964  46.4212812  45.1801207
  90.5207683  46.9669349  46.3024272  84.3936831  47.9655542  37.1125845
  84.2736456  48.4112593  37.9511326  83.6989419  48.3140860  36.5539384
  77.9844236  50.0661934  44.6625502  78.1136617  50.3196413  45.5764914
  77.3041687  50.6589642  44.3430158  82.1543723  60.7359184  40.7615977
  82.0767753  61.6867009  40.8404457  81.5505367  60.3905057  41.4190903
  84.6460953  47.9087050  53.4177344  83.8694287  48.4680970  53.4080208
  85.2851516  48.3943833  53.9392214  92.4381734  44.6913842  47.2520320
  91.7956114  44.9846375  46.6060115  91.9336662  44.5766763  48.0573517
  90.0921897  48.4377016  37.9406179  91.0039753  48.6704402  37.7653877
  89.5831544  49.0214060  37.3781258  82.9007325  50.7172503  52.9795311
  83.6422010  51.2557547  52.7030134  82.1944311  51.3438792  53.1366862
  88.3762665  52.8601643  51.5767472  88.7846021  52.4184054  50.8322104
  87.6539926  52.2854271  51.8301665  84.7293735  47.7974250  48.9501029
  85.5754930  48.2213664  49.0935678  84.6692373  47.1407874  49.6439592
  88.6991480  53.4202834  45.3319761  88.0700342  53.5848548  44.6295829
  88.3117142  53.8344444  46.1030725  92.5780711  54.3557272  42.6864125
  91.8931750  54.7356173  42.1361158  92.6624561  54.9652598  43.4196072
  87.8793180  45.4578618  50.6082203  87.6354112  46.2120679  50.0716478
  88.1553111  45.8363966  51.4429450  89.8331643  52.0017231  49.2859468
  90.0448538  52.6448991  48.6093849  89.7861391  51.1679547  48.8181398
  87.4357872  44.6135051  46.1896040  86.5742351  44.9116305  46.4812778
  87.4620307  44.8305450  45.2577073  84.2519441  53.1577242  42.5969846
  84.7157787  53.4364945  41.8074469  83.9876240  52.2560687  42.4142937
  81.1443522  52.7048724  45.5349609  81.7144880  53.1335992  44.8967094
  81.7351634  52.4231308  46.2333795  83.1888327  49.2800394  39.4059411
  83.8912371  49.7321438  39.8733338  82.8568956  48.6384213  40.0339304
  81.6368689  47.8712151  53.7810621  81.0067350  48.5528432  54.0146017
  81.5304777  47.7595233  52.8363759  76.9313661  47.5383947  44.7076545
  76.1412715  47.7941476  44.2316655  77.4224909  48.3532285  44.8128585
  90.9477471  54.8789186  47.4581826  91.7694915  54.4769374  47.1764507
  90.9439874  54.7757420  48.4097941  78.8828407  47.9028526  41.6660021
  78.0859570  48.0147221  42.1843517  78.6553999  48.2415179  40.8000912
  84.7134074  54.4273230  49.6142536  84.7778507  54.8893637  50.4500708
  84.0044998  53.7970594  49.7424846  75.2151364  47.7914438  47.1391536
  75.4659403  48.6761447  47.4049111  75.7510913  47.6119039  46.3666627
  99.0383464  51.2227935  43.8066797  98.2847172  50.6535333  43.6510801
  99.1731005  51.1890599  44.7537432  84.4282092  56.0941337  39.4821516
  84.2927767  56.9392873  39.9106364  84.9691905  56.2960615  38.7187450
  80.9149432  42.1732917  56.1435872  80.5216377  41.6199115  56.8183516
  81.7315572  42.4843495  56.5342389  77.8811489  53.6116775  40.0549441
  78.3936010  54.4060025  40.2055006  78.5334202  52.9143066  39.9883043
  79.6906374  56.7282531  42.1372195  79.8673003  57.6500496  41.9493179
  80.4863208  56.4140951  42.5666574  83.8317393  43.5890796  53.7356128
  84.5727106  44.1897949  53.6560591  84.0635316  42.8468434  53.1774171
  78.9758731  48.7747163  52.0134358  78.8612246  47.8732420  52.3141457
  78.1203248  49.0210860  51.6619174  86.0550568  56.7164904  53.6121858
  85.6114423  55.9301282  53.2942763  86.7167782  56.9044054  52.9465749
  80.8137690  58.2460705  48.1382537  81.3645115  58.1177769  47.3659531
  79.9749166  58.5455594  47.7877430  88.1531807  56.9967703  51.6403260
  88.1350282  57.8176585  51.1483529  89.0751727  56.8721779  51.8653401
  84.6104861  54.5111833  52.4826768  85.1433197  53.7500121  52.2526076
  84.0818942  54.2185485  53.2250923  87.7774556  39.6171899  48.0120410
  87.4338825  40.5073541  47.9359520  88.1453518  39.4273557  47.1489995
  87.7424838  49.6080510  36.5192845  87.2271462  50.3785115  36.7581232
  87.4702147  48.9345646  37.1425906  85.3271949  44.4530211  41.5778083
  84.4713546  44.0637061  41.3983722  85.7398901  44.5322172  40.7177869
  86.8571096  41.9876554  45.9769643  86.3535892  41.9506689  45.1637448
  87.1501703  42.8969297  46.0366300  83.1013982  42.0715284  44.9835825
  83.9666979  41.8758092  44.6241714  83.1691491  41.8425636  45.9105182
  92.7159112  52.3612865  38.4546018  91.9388555  52.0224024  38.0101181
  93.3950593  52.3665488  37.7800984  87.5311142  47.4807602  38.3452626
  87.2261277  47.7953751  39.1962769  88.4841584  47.5589022  38.3879959
  85.9757573  53.6397825  39.9945580  85.4478935  52.9050585  39.6818818
  85.4745076  54.4172502  39.7485548  90.9550419  51.8346846  45.1112626
  90.2974094  52.5246107  45.1992755  91.7590819  52.2243278  45.4546613
  80.7076301  44.3017492  42.3552192  81.2820053  44.0792673  41.6225385
  81.2947283  44.3706186  43.1080793  89.7655878  50.1891219  43.1616568
  90.2787760  50.8221210  43.6638278  90.4157102  49.5892414  42.7959928
  81.0345888  46.3321953  36.3748077  80.1983200  46.6696639  36.6957352
  80.8950658  46.1970933  35.4375214  83.0098969  41.1758741  41.0827261
  82.3563381  40.8607758  40.4583876  82.9679443  40.5534481  41.8087084
  84.1210174  51.4578036  32.9980553  83.2137235  51.2267289  33.1971702
  84.6181206  50.6615655  33.1854535  87.0278252  60.1675543  35.9177239
  86.3539951  60.4707240  36.5262197  87.4144074  60.9704623  35.5682696
  86.2436709  47.6640674  45.4074909  85.3259270  47.8855621  45.2496597
  86.6596853  47.7386985  44.5486616  87.0271757  49.0632090  40.5377589
  87.7743576  49.5753487  40.2284711  87.2963346  48.7416143  41.3981983
  85.2998407  51.5590631  37.5204543  84.3909626  51.2749663  37.6177013
  85.3293491  51.9789709  36.6607850  90.5317674  55.1697220  41.2895711
  90.0780002  54.3288130  41.3460901  89.9011641  55.8058618  41.6270491
  89.4750594  46.0989206  42.5196378  88.7373351  45.5866592  42.8506621
  89.7277368  45.6589588  41.7079655  88.9750614  57.0073717  42.2245529
  89.2673588  57.5678774  41.5057895  89.4849234  57.3002278  42.9798688
  89.5762221  38.8765458  43.1138148  89.8821098  38.0162822  42.8264063
  90.3014826  39.4683078  42.9137141  75.8686577  49.2796145  41.5019745
  75.6710977  48.6865505  40.7770812  75.3133241  48.9748355  42.2195684
  83.8483301  49.1719251  43.6214339  83.9031911  48.2193088  43.5456815
  83.0374503  49.3278690  44.1055637  84.9974495  53.0999374  34.8592622
  84.5593925  52.3835233  34.3998259  85.7384936  53.3275489  34.2977713
  81.7875661  47.7896311  41.3804717  80.9743527  48.0890481  41.7869910
  82.2834655  47.3952000  42.0979200  83.9384239  57.7854068  43.3138982
  83.8960418  58.0114914  42.3847514  84.8546938  57.5517442  43.4624783
  87.3849873  48.2538135  50.2119611  87.7399260  48.4809609  51.0714077
  88.0322004  48.5856512  49.5896867  93.1147610  51.3756571  40.9168940
  92.9765508  51.5658167  39.9890130  92.7583828  52.1375954  41.3736992
  81.2789736  45.3614666  46.9965952  81.9189115  45.2203426  46.2988916
  80.4467266  45.0749180  46.6204554  93.1416989  53.4433098  45.9280212
  93.5753496  53.3508387  46.7763266  93.8548570  53.4190599  45.2900228
  82.0550040  54.6617097  43.1100945  82.8490638  54.1667417  42.9083520
  81.3441732  54.1334960  42.7468650  86.8744884  57.0435192  47.4613313
  86.9281906  57.6126129  48.2291028  86.0059665  57.2137077  47.0967350
  78.3632803  48.8060179  39.1860698  77.4330391  48.7444634  39.4030660
  78.4590275  48.2836131  38.3897339  78.2818352  45.3314991  41.7738939
  78.5425169  46.2460325  41.6648100  79.1035524  44.8639434  41.9235552
  79.7543277  46.7452749  48.9437764  80.4266331  46.5370111  48.2950413
  78.9273064  46.5474835  48.5042996  94.0032539  53.4856799  48.4613097
  94.1968429  54.3902609  48.7072372  93.9033157  53.0264218  49.2951682
  85.6568849  43.3714690  50.9603425  85.0096765  44.0704639  50.8667901
  86.4269865  43.8050833  51.3279673  89.0647647  53.6363542  54.0353978
  88.9133154  53.4074093  53.1184062  89.0552327  54.5934143  54.0485323
  85.8332984  51.2095454  49.0200244  86.7625044  51.3606614  48.8469212
  85.4124014  51.2979475  48.1648891  84.6321316  55.2346119  46.7898782
  84.4932401  54.8664903  47.6624720  83.8435912  55.7493758  46.6182740
  85.2269468  60.3355215  38.1324319  85.4021223  59.8643259  38.9469941
  84.5402256  60.9620982  38.3605579  86.1826531  54.6127722  44.1787620
  85.8476363  54.5728492  45.0745270  85.6830476  53.9472437  43.7058030
  80.1570775  50.0195352  49.7040201  80.0190573  49.2875590  50.3051740
  81.0675698  49.9304252  49.4224389  89.1185722  51.9583756  34.4524679
  88.5014893  51.2330584  34.3557732  88.6502211  52.7193116  34.1091754
  82.7853075  49.7315311  49.1923881  83.4952694  49.0908503  49.1510499
  82.7422384  49.9828206  50.1150061  90.7739854  56.6682664  52.1130460
  90.7152400  55.9841884  51.4461043  91.1759372  57.4101654  51.6611086
  81.4982009  46.7180529  51.0119520  80.9619366  46.2671267  51.6641116
  80.9098718  46.8526438  50.2689984  79.7930553  63.4844578  44.9064179
  80.0327151  64.1163102  45.5843197  78.9499749  63.1332618  45.1929538
  80.9084268  46.1769180  33.5745984  80.0313735  46.0557981  33.2108230
  81.3842021  45.3855259  33.3224872  90.7757261  54.6322248  50.3444439
  89.8884040  54.2948170  50.4670838  91.3455812  53.9005279  50.5813205
  77.2321131  45.8536536  48.0972515  77.1479319  45.2462206  47.3622924
  76.4103837  46.3445555  48.0982011  84.3058415  59.2923701  47.3105683
  84.2328586  60.0978672  47.8224987  83.8635808  59.4915666  46.4853704
  84.0948194  58.5295471  40.8208504  83.3115716  59.0717151  40.9146729
  84.7940940  59.0469450  41.2202745  87.4044844  44.3390100  43.4642710
  87.9013544  43.5860062  43.1443780  86.6331826  44.3754417  42.8985919
  95.2574602  50.0430466  45.1061001  95.2464478  50.9255181  44.7354934
  94.3891981  49.6902016  44.9115538  86.7657098  59.1910535  49.4663841
  87.4785070  59.8257999  49.3939743  86.2747127  59.2874401  48.6503843
  88.4874625  53.0961787  41.0381133  87.5530904  53.2163250  40.8685837
  88.6651294  52.1934254  40.7741143  83.9879813  46.4807483  43.1914394
  83.6177601  45.9278523  43.8795300  84.4838906  45.8765616  42.6389394
  91.8747177  48.9379107  41.5731167  92.3407629  49.7707098  41.4991470
  92.3254677  48.4724088  42.2776426  81.8169012  56.9404978  50.2869412
  82.5178471  57.5741461  50.4398806  81.3464127  57.2819710  49.5265051
  89.9423408  55.2822928  38.5717319  90.2183252  55.1679522  39.4811193
  89.0727906  54.8840413  38.5329492  89.8463839  41.3059694  45.6122068
  88.9326919  41.5363920  45.7804275  90.2756941  41.3898138  46.4636101
  89.6170298  49.4949585  48.1121963  88.9641748  49.7425493  47.4574415
  89.9950678  48.6813724  47.7784440  86.5777472  59.5309279  42.2150133
  86.7599866  58.7130935  42.6777885  87.4010458  59.7476971  41.7775023
  86.9119637  58.4577464  39.4765181  87.4407404  57.9469918  38.8635343
  87.1747857  58.1419994  40.3410714  85.6657871  50.2369397  54.5988000
  84.9898508  50.1363526  55.2690375  86.4885505  50.0808610  55.0623997
  77.4136730  56.4741333  47.2200515  77.9990167  55.7285021  47.3528419
  77.2161568  56.7845290  48.1037179  80.2675385  59.5092580  42.2362957
  79.5985760  59.9938708  41.7526997  80.1288255  59.7561801  43.1506336
  84.4080654  61.5436324  48.8345616  84.9598962  61.7067945  49.5994701
  84.7486847  62.1340762  48.1625640  79.3845147  43.8911474  49.4367500
  79.4486473  44.7526305  49.0244898  79.3212267  43.2785475  48.7039859
  78.8597419  45.9634606  53.0840535  79.4869458  45.5811684  53.6978059
  78.0025338  45.7448808  53.4496227  89.2591528  56.3697582  54.6894270
  89.8031432  56.9827540  54.1949225  88.6778373  56.9277160  55.2061283
  75.6362962  47.7711035  39.0158889  75.9316403  46.8621714  38.9625943
  74.7350998  47.7498775  38.6939892  87.5449041  59.4918300  45.8209298
  87.4200180  58.6908039  45.3120243  88.2028132  59.9864493  45.3323268
  79.1657209  45.8467032  44.9986438  78.4443795  46.4603000  44.8593911
  79.9550465  46.3824797  44.9203084  89.6083949  57.2927320  47.4488848
  88.6614285  57.1732671  47.3767175  89.9566722  56.4049818  47.5315109
  81.9683523  43.1821459  51.2727090  82.4917925  43.4283755  52.0353399
  81.7495856  44.0141493  50.8530227  77.3650804  45.4525133  39.1398215
  77.0363510  44.5722512  38.9573320  77.7190174  45.3972802  40.0274604
  86.6130383  57.0880036  43.6493200  86.4655345  56.1596743  43.8300770
  87.4383876  57.1100127  43.1650275  80.4792627  45.7398103  39.5073692
  80.8188699  46.2684024  38.7852301  80.9264747  46.0778509  40.2832259
  90.2164504  57.9108595  44.7358073  91.1411052  57.7051456  44.5982524
  90.0479808  57.6624996  45.6447414  83.1736068  44.1235154  48.9576760
  82.8332888  43.3242967  49.3597440  82.4675074  44.4236864  48.3853593
  83.8252540  41.2084466  47.4104083  84.6478609  40.7344944  47.2882974
  84.0690603  41.9874950  47.9102770  82.4660774  44.2372724  37.7066985
  83.1869137  44.6153977  37.2030702  81.8426078  44.9561601  37.8101963
  86.6091897  44.9417873  38.6425317  86.8255511  45.8242511  38.3414145
  86.1285964  44.5504087  37.9130959  81.3491118  47.9003587  45.2196062
  81.2035699  48.2143890  46.1120343  80.8716322  48.5188487  44.6666961
  83.2087501  44.8906135  45.2676951  83.1949070  43.9947228  44.9309249
  83.9259929  44.8976798  45.9015237  85.0613632  45.3243475  47.3130079
  84.8031410  46.2460546  47.3114409  84.5298672  44.9273909  48.0030543
  90.0059821  58.4294262  40.0920164  90.1796698  57.8640684  39.3394017
  90.4988712  59.2295157  39.9099654  82.6124397  43.7720515  40.5364522
  82.7340308  42.8437161  40.7355409  82.3226440  43.7859201  39.6242837
  85.4815588  41.4575425  43.6731241  85.5037284  41.5214758  42.7183221
  85.8983647  40.6179934  43.8671748  95.8599212  51.1930685  41.7110464
  96.3030358  50.4438010  41.3129587  94.9825722  51.1840821  41.3284196
  90.9934993  57.7461026  37.1917063  91.6885898  58.3667719  37.4104377
  91.3358143  56.8956378  37.4669440  92.8926416  55.1960732  38.7204393
  93.4177740  55.5348005  37.9953713  92.8048769  54.2607747  38.5367528
  84.5546465  59.1094806  50.8494270  84.8633591  58.8643952  51.7216970
  85.3521947  59.3141444  50.3613140  84.5767077  61.2632715  43.0799646
  84.1372067  60.7709094  43.7732503  85.3275194  60.7205683  42.8391722
  77.0559416  57.4544256  43.0824275  77.8817436  57.1548028  42.7022918
  76.7053468  56.6851879  43.5314063  82.0240949  56.8070724  45.1521948
  81.4020958  56.1441429  44.8524176  82.6945816  56.8331856  44.4695596
  75.2568021  55.3730583  44.0413208  74.4199929  54.9452757  43.8597209
  75.2291666  55.5663026  44.9783999  82.0965477  45.2852512  54.7454454
  82.1453632  46.1614635  54.3632224  82.6387991  44.7429905  54.1726097
  92.5820322  55.8293636  54.0255591  91.7915866  55.8117774  53.4860091
  92.3453677  56.3681929  54.7804628  92.7018197  52.6786102  51.3388320
  92.7516202  52.5136109  52.2803843  92.5932121  51.8113361  50.9486201
  81.5854456  55.3574648  38.6280409  81.7342576  56.0410112  37.9747081
  82.3920900  55.3379738  39.1429864  89.9921960  48.6617030  52.6547627
  90.8931823  48.5223495  52.3631624  90.0669934  48.8271485  53.5945804
  84.3264765  46.0383885  51.5000813  83.4568075  46.3317451  51.2283401
  84.5624245  46.6224330  52.2208076  94.2036394  55.0983043  51.5830341
  93.9121203  55.4613024  52.4193802  93.5908526  54.3850052  51.4043673
  95.4032077  52.6635923  44.1032912  96.2378968  53.1025727  44.2670472
  95.5391205  52.1874576  43.2841157  92.4523582  50.2215658  50.0510399
  92.9277704  50.4143304  49.2429251  91.5289148  50.2774844  49.8053783
  79.3407089  51.3839825  39.6341478  79.0953131  50.4802155  39.8321688
  79.5103004  51.3856976  38.6920956  87.0303799  42.2563502  49.0166233
  87.5485743  42.9924529  48.6912722  86.6758932  42.5627495  49.8512992
  78.6102737  47.1168183  37.1327639  77.9171982  47.1912538  36.4767675
  78.3654489  46.3528526  37.6549156  87.2816393  38.6763784  44.5367130
  87.5618147  38.0086973  45.1627556  88.0667000  38.8692880  44.0241794
  85.0849862  57.8522778  36.0992156  84.5123829  58.4712965  35.6462628
  85.6582655  58.4022140  36.6332078  91.1525251  47.0981418  48.2838705
  92.1042674  47.1979516  48.3050929  90.9828702  46.3059687  48.7936789
  89.1739631  44.1837001  48.4698106  88.5789563  44.4642014  47.7744594
  88.8889328  44.6730902  49.2414847  88.3047121  58.1359928  37.2300738
  89.2377795  58.0705490  37.4333614  88.2170334  58.9716195  36.7715271
  90.9335138  57.4525799  34.1904686  90.8548770  57.1185662  35.0840444
  91.7544805  57.9447566  34.1896158  93.6313329  50.3187538  47.3981005
  93.5989649  49.3803539  47.5840688  94.2413953  50.3971575  46.6646829
  85.4696660  49.1883591  33.4408209  86.4155765  49.0589799  33.5096627
  85.0910905  48.4498253  33.9177637  93.7807818  47.1098581  47.4439288
  93.2646866  46.3257038  47.2569217  94.6647766  46.7817298  47.6085807
  91.4418545  40.8539597  43.4035100  91.2443366  40.5454685  44.2878432
  92.0518250  41.5801236  43.5333030  99.4489879  51.3803545  46.5387041
 100.1793268  51.1188833  47.0994745  98.8396825  50.6432267  46.5789109
  97.5305176  49.5211407  47.1361493  96.8038340  49.3867372  46.5277984
  97.1152463  49.8288236  47.9418211  85.3535353  53.2401337  54.9008866
  86.2738362  53.4179936  55.0948912  85.3184936  52.2957382  54.7488565
  83.6539577  47.1133567  33.3763094  82.7471033  46.8166680  33.4525807
  83.9315558  46.8163385  32.5097380  78.3497425  51.1502372  47.5431647
  78.5683435  52.0819479  47.5619681  78.7623199  50.7910346  48.3286451
  85.2701643  41.6570457  39.5307335  84.4602371  41.3117542  39.9062581
  85.9586060  41.3478001  40.1194947  87.1992191  40.7348504  41.1531632
  87.7523230  41.1543957  41.8121655  87.4362278  39.8084252  41.1954588
  83.2225291  46.7235577  56.9334396  83.1222017  47.6729934  56.8646487
  83.0046833  46.3953816  56.0610466  82.4238362  43.9720502  33.5175073
  83.2857526  44.2975401  33.7770890  82.6088706  43.1851998  33.0048139
  90.5770998  42.8449029  40.6610296  89.9969667  43.5033833  40.2788348
  90.3106931  42.0226374  40.2497714  89.0274565  42.2454087  42.8631616
  89.5274343  42.3570621  42.0545935  89.6710173  41.9415139  43.5032425
  83.0856561  50.1532716  55.7499457  82.6023642  50.9533076  55.9563346
  83.1717500  50.1640661  54.7966901  79.0129898  54.0437251  47.7867891
  79.9673152  54.0121193  47.7197823  78.8142422  53.5827875  48.6018117
  79.6029280  52.6138367  50.3538689  80.4222169  53.1082446  50.3773526
  79.8766088  51.6970335  50.3256256  89.3595876  45.0049119  39.7166644
  88.4721731  45.2898770  39.4986839  89.7749865  44.8442883  38.8693921
  92.7110413  45.0295640  43.4320984  93.4870803  45.5192093  43.7045600
  91.9858547  45.4553694  43.8892853  95.1482971  45.7423259  44.4894924
  95.7427462  45.5018995  43.7788232  95.2209555  45.0230390  45.1168460
  77.3680127  59.5856870  44.8038089  77.2334595  58.8257271  44.2376087
  76.9512189  60.3097770  44.3366878  88.5039090  54.7693794  33.8114664
  89.2074940  54.9743796  34.4272320  87.7801739  55.3370556  34.0763748
  89.3336900  50.5203655  39.9316934  89.2772102  50.9772207  39.0924567
  89.8865243  49.7594340  39.7539777  93.1441706  46.3093387  40.7567054
  92.8878640  45.9090023  41.5875262  92.5194574  47.0237181  40.6317193
  97.4554044  49.0489460  43.2638345  96.8953602  49.1182650  44.0369907
  96.8497547  48.8730445  42.5437842  80.5249253  60.4826187  45.0156532
  80.4081637  61.4271620  44.9135222  79.7041699  60.1799749  45.4042331
  90.4125787  55.2076323  35.8613124  91.2471391  54.7757522  35.6790599
  90.2510130  55.0358337  36.7890019  90.0671679  51.7108436  37.2269464
  90.0120483  51.5452708  36.2857908  89.4417735  52.4184469  37.3831653
  87.3817587  54.0157348  56.5523026  88.2508746  54.1898001  56.1909661
  86.9024338  54.8351765  56.4298756  83.3767805  41.2116545  36.8054782
  83.3646475  42.1558385  36.9623053  84.2691227  41.0286691  36.5114243
  81.5503767  61.1354449  48.2312460  82.4531014  61.1678060  48.5478955
  81.3241137  60.2054900  48.2458796  83.3057369  59.8885436  44.8922539
  82.3553000  59.8887297  44.7786911  83.6089855  59.1418170  44.3758573
  87.1919924  37.8059322  41.0600719  86.4252320  37.2517809  41.2057401
  87.6030629  37.8781191  41.9214870  79.1961685  44.0944118  55.1505900
  80.0593147  43.7380923  55.3609225  78.6227096  43.7558013  55.8381304
  99.0410062  65.7245974  45.9568301  99.6788472  65.6052722  45.2531641
  98.9230905  66.6726818  46.0156253  95.8499769  65.6773402  45.8929826
  95.5118280  65.5614467  45.0050361  96.7189537  65.2764567  45.8730832
  91.7086584  67.5308879  41.8826717  91.1451449  67.4398816  41.1143004
  91.5938979  66.7108783  42.3629209  96.3319552  66.8308254  51.8516031
  96.3208192  66.4361052  50.9796535  96.4940191  66.0974327  52.4449803
  89.2551016  69.0260070  44.7210937  90.0472308  68.6850895  44.3057237
  89.4947666  69.1355045  45.6413091  97.2886143  71.1979846  37.1941182
  96.6374123  71.7833927  36.8075195  98.0830506  71.7286041  37.2536219
  91.2141770  68.2868984  37.5928316  91.9872646  67.7397971  37.4541192
  91.5667169  69.1513233  37.8042777  93.0526813  69.6145366  50.7995215
  92.7616679  70.5190997  50.6841882  93.6883797  69.6561894  51.5139285
  93.9783020  66.9922214  47.3896575  94.5746592  66.7678237  46.6753538
  94.0357991  66.2506960  47.9922023  93.5508048  64.4461650  35.2246766
  93.8033569  63.9243171  34.4630229  92.6132607  64.2827795  35.3273450
  98.5951331  63.4497428  43.0321509  99.3814420  63.0316851  42.6811926
  98.8590035  64.3543520  43.2003158  98.7661408  68.8870278  37.7310166
  98.1307241  68.9604905  38.4431071  98.4358815  69.4763877  37.0529245
 103.9959758  63.3872661  43.9354488 104.7284930  62.8171878  44.1692317
 103.2399114  62.9994262  44.3760993  93.2704337  66.3489756  37.4271141
  93.1540595  65.6734659  38.0952225  93.3806597  65.8622130  36.6103294
  95.6135878  65.8099903  41.1317830  95.2494085  65.2830524  41.8430752
  96.4702994  65.4198372  40.9584316 101.5185178  57.0994235  48.3949096
 101.1868503  57.9689646  48.1710311 100.9230792  56.7830519  49.0743127
  95.2541365  60.8389803  36.1279179  95.4215767  61.7070039  36.4949650
  95.0638534  61.0017084  35.2040468  98.0116698  69.3006781  47.7945009
  97.7117421  70.2031820  47.6860816  97.6667757  69.0338965  48.6466162
  91.4629179  65.7520578  43.8281713  90.5379676  65.6196792  44.0359405
  91.7113593  66.5314798  44.3251656 101.4113842  61.8189322  45.4742446
 100.5030719  61.7504730  45.1801207 101.3601437  62.2961267  46.3024272
  95.2330586  63.2947460  37.1125845  95.1130211  63.7404511  37.9511326
  94.5383174  63.6432778  36.5539384  88.8237990  65.3953852  44.6625502
  88.9530372  65.6488331  45.5764914  88.1435442  65.9881560  44.3430158
  92.9937478  76.0651102  40.7615977  92.9161507  77.0158927  40.8404457
  92.3899121  75.7196974  41.4190903  95.4854707  63.2378967  53.4177344
  94.7088041  63.7972887  53.4080208  96.1245270  63.7235750  53.9392214
 103.2775488  60.0205760  47.2520320 102.6349868  60.3138293  46.6060115
 102.7730417  59.9058680  48.0573517 100.9315652  63.7668933  37.9406179
 101.8433508  63.9996320  37.7653877 100.4225299  64.3505977  37.3781258
  93.7401080  66.0464421  52.9795311  94.4815764  66.5849465  52.7030134
  93.0338065  66.6730709  53.1366862  99.2156419  68.1893561  51.5767472
  99.6239775  67.7475972  50.8322104  98.4933681  67.6146189  51.8301665
  95.5687489  63.1266168  48.9501029  96.4148685  63.5505581  49.0935678
  95.5086127  62.4699792  49.6439592  99.5385234  68.7494752  45.3319761
  98.9094096  68.9140466  44.6295829  99.1510896  69.1636361  46.1030725
 103.4174466  69.6849190  42.6864125 102.7325504  70.0648091  42.1361158
 103.5018315  70.2944516  43.4196072  98.7186935  60.7870536  50.6082203
  98.4747867  61.5412597  50.0716478  98.9946865  61.1655884  51.4429450
 100.6725398  67.3309149  49.2859468 100.8842293  67.9740908  48.6093849
 100.6255146  66.4971465  48.8181398  98.2751626  59.9426969  46.1896040
  97.4136106  60.2408223  46.4812778  98.3014061  60.1597368  45.2577073
  95.0913196  68.4869160  42.5969846  95.5551541  68.7656863  41.8074469
  94.8269994  67.5852604  42.4142937  91.9837277  68.0340641  45.5349609
  92.5538634  68.4627910  44.8967094  92.5745389  67.7523226  46.2333795
  94.0282082  64.6092312  39.4059411  94.7306125  65.0613356  39.8733338
  93.6962710  63.9676131  40.0339304  92.4762443  63.2004069  53.7810621
  91.8461104  63.8820350  54.0146017  92.3698531  63.0887150  52.8363759
  87.7707416  62.8675865  44.7076545  86.9806470  63.1233393  44.2316655
  88.2618663  63.6824203  44.8128585 101.7871225  70.2081104  47.4581826
 102.6088669  69.8061291  47.1764507 101.7833628  70.1049338  48.4097941
  89.7222161  63.2320444  41.6660021  88.9253325  63.3439138  42.1843517
  89.4947753  63.5707096  40.8000912  95.5527829  69.7565147  49.6142536
  95.6172261  70.2185554  50.4500708  94.8438753  69.1262512  49.7424846
  86.0545119  63.1206355  47.1391536  86.3053157  64.0053365  47.4049111
  86.5904667  62.9410957  46.3666627 109.8777219  66.5519852  43.8066797
 109.1240927  65.9827251  43.6510801 110.0124760  66.5182517  44.7537432
  95.2675847  71.4233255  39.4821516  95.1321521  72.2684790  39.9106364
  95.8085659  71.6252532  38.7187450  91.7543186  57.5024835  56.1435872
  91.3610132  56.9491033  56.8183516  92.5709327  57.8135413  56.5342389
  88.7205244  68.9408693  40.0549441  89.2329765  69.7351943  40.2055006
  89.3727957  68.2434983  39.9883043  90.5300129  72.0574449  42.1372195
  90.7066757  72.9792414  41.9493179  91.3256962  71.7432868  42.5666574
  94.6711147  58.9182714  53.7356128  95.4120861  59.5189867  53.6560591
  94.9029070  58.1760351  53.1774171  89.8152485  64.1039081  52.0134358
  89.7006000  63.2024338  52.3141457  88.9597003  64.3502778  51.6619174
  96.8944323  72.0456821  53.6121858  96.4508177  71.2593200  53.2942763
  97.5561537  72.2335972  52.9465749  91.6531444  73.5752623  48.1382537
  92.2038869  73.4469686  47.3659531  90.8142920  73.8747512  47.7877430
  98.9925561  72.3259621  51.6403260  98.9744036  73.1468502  51.1483529
  99.9145481  72.2013696  51.8653401  95.4498615  69.8403751  52.4826768
  95.9826952  69.0792039  52.2526076  94.9212696  69.5477402  53.2250923
  98.6168310  54.9463817  48.0120410  98.2732580  55.8365458  47.9359520
  98.9847273  54.7565474  47.1489995  86.6854161  67.2697347  40.8309012
  87.5229383  67.6794355  40.6142720  86.8632428  66.3296789  40.8009206
  98.5818593  64.9372428  36.5192845  98.0665216  65.7077032  36.7581232
  98.3095901  64.2637564  37.1425906  96.1665704  59.7822129  41.5778083
  95.3107300  59.3928979  41.3983722  96.5792656  59.8614089  40.7177869
  97.6964851  57.3168472  45.9769643  97.1929646  57.2798607  45.1637448
  97.9895457  58.2261214  46.0366300  93.9407736  57.4007201  44.9835825
  94.8060733  57.2050010  44.6241714  94.0085245  57.1717553  45.9105182
 103.5552867  67.6904782  38.4546018 102.7782310  67.3515942  38.0101181
 104.2344348  67.6957406  37.7800984  98.3704896  62.8099520  38.3452626
  98.0655032  63.1245669  39.1962769  99.3235338  62.8880940  38.3879959
  96.8151328  68.9689743  39.9945580  96.2872689  68.2342503  39.6818818
  96.3138831  69.7464419  39.7485548 101.7944174  67.1638764  45.1112626
 101.1367848  67.8538025  45.1992755 102.5984573  67.5535196  45.4546613
  91.5470055  59.6309409  42.3552192  92.1213807  59.4084591  41.6225385
  92.1341038  59.6998104  43.1080793 100.6049633  65.5183136  43.1616568
 101.1181514  66.1513128  43.6638278 101.2550857  64.9184332  42.7959928
  91.8739643  61.6613870  36.3748077  91.0376955  61.9988557  36.6957352
  91.7344412  61.5262850  35.4375214  93.8492723  56.5050658  41.0827261
  93.1957136  56.1899675  40.4583876  93.8073197  55.8826399  41.8087084
  94.9603928  66.7869953  32.9980553  94.0530990  66.5559207  33.1971702
  95.4574960  65.9907573  33.1854535  97.8672007  75.4967461  35.9177239
  97.1933706  75.7999157  36.5262197  98.2537829  76.2996541  35.5682696
  97.0830464  62.9932592  45.4074909  96.1653025  63.2147539  45.2496597
  97.4990607  63.0678902  44.5486616  97.8665511  64.3924008  40.5377589
  98.6137330  64.9045405  40.2284711  98.1357101  64.0708060  41.3981983
  96.1392161  66.8882548  37.5204543  95.2303381  66.6041581  37.6177013
  96.1687245  67.3081627  36.6607850 101.3711429  70.4989138  41.2895711
 100.9173756  69.6580048  41.3460901 100.7405396  71.1350536  41.6270491
 100.3144348  61.4281124  42.5196378  99.5767105  60.9158510  42.8506621
 100.5671122  60.9881505  41.7079655  99.8144368  72.3365634  42.2245529
 100.1067343  72.8970692  41.5057895 100.3242989  72.6294195  42.9798688
 100.4155976  54.2057376  43.1138148 100.7214853  53.3454739  42.8264063
 101.1408581  54.7974996  42.9137141  86.7080332  64.6088062  41.5019745
  86.5104732  64.0157423  40.7770812  86.1526996  64.3040273  42.2195684
  94.6877056  64.5011169  43.6214339  94.7425665  63.5485005  43.5456815
  93.8768258  64.6570608  44.1055637  95.8368249  68.4291292  34.8592622
  95.3987679  67.7127151  34.3998259  96.5778690  68.6567407  34.2977713
  92.6269415  63.1188229  41.3804717  91.8137281  63.4182399  41.7869910
  93.1228410  62.7243917  42.0979200  94.7777993  73.1145986  43.3138982
  94.7354172  73.3406832  42.3847514  95.6940692  72.8809360  43.4624783
  98.2243627  63.5830053  50.2119611  98.5793015  63.8101526  51.0714077
  98.8715758  63.9148430  49.5896867 103.9541364  66.7048489  40.9168940
 103.8159263  66.8950085  39.9890130 103.5977583  67.4667872  41.3736992
  92.1183490  60.6906584  46.9965952  92.7582870  60.5495343  46.2988916
  91.2861021  60.4041098  46.6204554 103.9810744  68.7725016  45.9280212
 104.4147250  68.6800305  46.7763266 104.6942324  68.7482516  45.2900228
  92.8943794  69.9909015  43.1100945  93.6884393  69.4959335  42.9083520
  92.1835487  69.4626878  42.7468650  97.7138639  72.3727110  47.4613313
  97.7675661  72.9418046  48.2291028  96.8453420  72.5428995  47.0967350
  89.2026558  64.1352096  39.1860698  88.2724146  64.0736552  39.4030660
  89.2984030  63.6128049  38.3897339  89.1212107  60.6606909  41.7738939
  89.3818924  61.5752242  41.6648100  89.9429279  60.1931352  41.9235552
  90.5937032  62.0744666  48.9437764  91.2660085  61.8662028  48.2950413
  89.7666818  61.8766752  48.5042996 104.8426293  68.8148717  48.4613097
 105.0362183  69.7194527  48.7072372 104.7426911  68.3556136  49.2951682
  96.4962604  58.7006607  50.9603425  95.8490519  59.3996557  50.8667901
  97.2663619  59.1342751  51.3279673  99.9041402  68.9655459  54.0353978
  99.7526908  68.7366011  53.1184062  99.8946081  69.9226061  54.0485323
  96.6726738  66.5387372  49.0200244  97.6018798  66.6898532  48.8469212
  96.2517768  66.6271393  48.1648891  95.4715070  70.5638037  46.7898782
  95.3326156  70.1956821  47.6624720  94.6829666  71.0785676  46.6182740
  96.0663222  75.6647133  38.1324319  96.2414978  75.1935176  38.9469941
  95.3796010  76.2912899  38.3605579  97.0220285  69.9419639  44.1787620
  96.6870118  69.9020409  45.0745270  96.5224231  69.2764355  43.7058030
  90.9964529  65.3487269  49.7040201  90.8584327  64.6167508  50.3051740
  91.9069453  65.2596169  49.4224389  99.9579477  67.2875674  34.4524679
  99.3408648  66.5622502  34.3557732  99.4895965  68.0485034  34.1091754
  93.6246830  65.0607229  49.1923881  94.3346448  64.4200421  49.1510499
  93.5816138  65.3120123  50.1150061 101.6133609  71.9974582  52.1130460
 101.5546155  71.3133802  51.4461043 102.0153127  72.7393572  51.6611086
  92.3375764  62.0472446  51.0119520  91.8013121  61.5963185  51.6641116
  91.7492472  62.1818355  50.2689984  90.6324307  78.8136496  44.9064179
  90.8720906  79.4455020  45.5843197  89.7893504  78.4624536  45.1929538
  91.7478023  61.5061098  33.5745984  90.8707489  61.3849899  33.2108230
  92.2235776  60.7147176  33.3224872 101.6151016  69.9614166  50.3444439
 100.7277795  69.6240088  50.4670838 102.1849567  69.2297197  50.5813205
  83.2680163  66.2938258  43.6687491  83.9551203  65.9799988  43.0808506
  83.1128292  67.1979622  43.3954742  88.0714885  61.1828454  48.0972515
  87.9873074  60.5754124  47.3622924  87.2497592  61.6737472  48.0982011
  95.1452169  74.6215618  47.3105683  95.0722341  75.4270590  47.8224987
  94.7029562  74.8207584  46.4853704  94.9341949  73.8587388  40.8208504
  94.1509471  74.4009068  40.9146729  95.6334694  74.3761368  41.2202745
  98.2438599  59.6682018  43.4642710  98.7407299  58.9151980  43.1443780
  97.4725580  59.7046334  42.8985919 106.0968356  65.3722383  45.1061001
 106.0858233  66.2547099  44.7354934 105.2285736  65.0193934  44.9115538
  97.6050853  74.5202452  49.4663841  98.3178825  75.1549917  49.3939743
  97.1140881  74.6166318  48.6503843  99.3268380  68.4253705  41.0381133
  98.3924658  68.5455167  40.8685837  99.5045048  67.5226172  40.7741143
  94.8273568  61.8099401  43.1914394  94.4571355  61.2570441  43.8795300
  95.3232660  61.2057534  42.6389394 102.7140931  64.2671024  41.5731167
 103.1801383  65.0999016  41.4991470 103.1648432  63.8016006  42.2776426
  92.6562766  72.2696896  50.2869412  93.3572226  72.9033379  50.4398806
  92.1857881  72.6111627  49.5265051 100.7817162  70.6114846  38.5717319
 101.0577006  70.4971440  39.4811193  99.9121661  70.2132330  38.5329492
 100.6857594  56.6351611  45.6122068  99.7720674  56.8655838  45.7804275
 101.1150695  56.7190055  46.4636101 100.4564052  64.8241503  48.1121963
  99.8035502  65.0717411  47.4574415 100.8344432  64.0105641  47.7784440
  97.4171226  74.8601196  42.2150133  97.5993621  74.0422852  42.6777885
  98.2404212  75.0768889  41.7775023  97.7513392  73.7869381  39.4765181
  98.2801158  73.2761836  38.8635343  98.0141611  73.4711912  40.3410714
  96.5051625  65.5661314  54.5988000  95.8292262  65.4655444  55.2690375
  97.3279259  65.4100528  55.0623997  88.2530484  71.8033251  47.2200515
  88.8383921  71.0576939  47.3528419  88.0555323  72.1137207  48.1037179
  91.1069140  74.8384498  42.2362957  90.4379515  75.3230626  41.7526997
  90.9682009  75.0853719  43.1506336  82.8448139  64.3738851  45.9404958
  82.8832239  63.8402442  46.7342076  82.3388432  63.8474056  45.3215935
  95.2474408  76.8728242  48.8345616  95.7992716  77.0359863  49.5994701
  95.5880602  77.4632679  48.1625640  90.2238901  59.2203391  49.4367500
  90.2880228  60.0818222  49.0244898  90.1606022  58.6077393  48.7039859
  89.6991174  61.2926524  53.0840535  90.3263213  60.9103601  53.6978059
  88.8419093  61.0740726  53.4496227 100.0985282  71.6989499  54.6894270
 100.6425186  72.3119457  54.1949225  99.5172127  72.2569078  55.2061283
  86.4756717  63.1002953  39.0158889  86.7710158  62.1913632  38.9625943
  85.5744752  63.0790693  38.6939892  98.3842795  74.8210217  45.8209298
  98.2593935  74.0199957  45.3120243  99.0421887  75.3156411  45.3323268
  90.0050964  61.1758950  44.9986438  89.2837549  61.7894917  44.8593911
  90.7944219  61.7116715  44.9203084 100.4477704  72.6219237  47.4488848
  99.5008039  72.5024588  47.3767175 100.7960477  71.7341735  47.5315109
  92.8077277  58.5113376  51.2727090  93.3311679  58.7575673  52.0353399
  92.5889610  59.3433411  50.8530227  88.2044558  60.7817051  39.1398215
  87.8757264  59.9014430  38.9573320  88.5583929  60.7264719  40.0274604
  97.4524137  72.4171954  43.6493200  97.3049100  71.4888661  43.8300770
  98.2777631  72.4392044  43.1650275  91.3186381  61.0690021  39.5073692
  91.6582454  61.5975942  38.7852301  91.7658502  61.4070427  40.2832259
 101.0558259  73.2400512  44.7358073 101.9804806  73.0343374  44.5982524
 100.8873562  72.9916913  45.6447414  94.0129822  59.4527071  48.9576760
  93.6726643  58.6534884  49.3597440  93.3068828  59.7528782  48.3853593
  94.6646294  56.5376384  47.4104083  95.4872363  56.0636862  47.2882974
  94.9084358  57.3166867  47.9102770  93.3054529  59.5664642  37.7066985
  94.0262891  59.9445895  37.2030702  92.6819833  60.2853519  37.8101963
  97.4485651  60.2709791  38.6425317  97.6649266  61.1534429  38.3414145
  96.9679719  59.8796005  37.9130959  92.1884873  63.2295504  45.2196062
  92.0429454  63.5435807  46.1120343  91.7110076  63.8480405  44.6666961
  94.0481256  60.2198052  45.2676951  94.0342824  59.3239146  44.9309249
  94.7653684  60.2268716  45.9015237  95.9007386  60.6535393  47.3130079
  95.6425164  61.5752463  47.3114409  95.3692427  60.2565827  48.0030543
 100.8453575  73.7586180  40.0920164 101.0190453  73.1932602  39.3394017
 101.3382466  74.5587075  39.9099654  86.6630535  65.7700849  48.1583723
  86.1184003  66.5460657  48.2903997  87.5409885  66.1171653  48.0002845
  93.4518152  59.1012433  40.5364522  93.5734063  58.1729079  40.7355409
  93.1620194  59.1151119  39.6242837  96.3209342  56.7867343  43.6731241
  96.3431039  56.8506676  42.7183221  96.7377401  55.9471852  43.8671748
 106.6992966  66.5222603  41.7110464 107.1424112  65.7729928  41.3129587
 105.8219477  66.5132739  41.3284196 101.8328748  73.0752944  37.1917063
 102.5279652  73.6959637  37.4104377 102.1751898  72.2248295  37.4669440
  87.4496557  64.8970745  51.0513880  86.7078293  65.0453380  51.6378510
  87.1289301  65.1579011  50.1880629 103.7320171  70.5252650  38.7204393
 104.2571495  70.8639922  37.9953713 103.6442523  69.5899665  38.5367528
  95.3940219  74.4386723  50.8494270  95.7027346  74.1935870  51.7216970
  96.1915701  74.6433362  50.3613140  95.4160832  76.5924633  43.0799646
  94.9765822  76.1001012  43.7732503  96.1668948  76.0497601  42.8391722
  87.8953171  72.7836174  43.0824275  88.7211190  72.4839946  42.7022918
  87.5447222  72.0143796  43.5314063  92.8634704  72.1362642  45.1521948
  92.2414713  71.4733347  44.8524176  93.5339571  72.1623774  44.4695596
  86.0961776  70.7022500  44.0413208  85.2593684  70.2744675  43.8597209
  86.0685421  70.8954944  44.9783999  92.9359231  60.6144430  54.7454454
  92.9847387  61.4906553  54.3632224  93.4781745  60.0721823  54.1726097
 103.4214077  71.1585553  54.0255591 102.6309621  71.1409692  53.4860091
 103.1847431  71.6973847  54.7804628 103.5411952  68.0078020  51.3388320
 103.5909957  67.8428027  52.2803843 103.4325875  67.1405279  50.9486201
  92.4248211  70.6866565  38.6280409  92.5736331  71.3702030  37.9747081
  93.2314654  70.6671655  39.1429864 100.8315714  63.9908948  52.6547627
 101.7325577  63.8515413  52.3631624 100.9063689  64.1563402  53.5945804
  95.1658520  61.3675802  51.5000813  94.2961829  61.6609368  51.2283401
  95.4018000  61.9516247  52.2208076 105.0430149  70.4274961  51.5830341
 104.7514957  70.7904942  52.4193802 104.4302280  69.7141969  51.4043673
 106.2425831  67.9927841  44.1032912 107.0772722  68.4317645  44.2670472
 106.3784960  67.5166494  43.2841157 103.2917337  65.5507576  50.0510399
 103.7671459  65.7435222  49.2429251 102.3682902  65.6066762  49.8053783
  90.1800844  66.7131743  39.6341478  89.9346886  65.8094073  39.8321688
  90.3496758  66.7148893  38.6920956  97.8697553  57.5855419  49.0166233
  98.3879497  58.3216446  48.6912722  97.5152686  57.8919413  49.8512992
  89.4496491  62.4460101  37.1327639  88.7565736  62.5204456  36.4767675
  89.2048243  61.6820444  37.6549156  98.1210148  54.0055702  44.5367130
  98.4011901  53.3378891  45.1627556  98.9060755  54.1984797  44.0241794
  95.9243616  73.1814696  36.0992156  95.3517583  73.8004883  35.6462628
  96.4976410  73.7314057  36.6332078 101.9919006  62.4273336  48.2838705
 102.9436429  62.5271434  48.3050929 101.8222456  61.6351604  48.7936789
 100.0133385  59.5128919  48.4698106  99.4183318  59.7933932  47.7744594
  99.7283082  60.0022820  49.2414847  99.1440876  73.4651846  37.2300738
 100.0771549  73.3997408  37.4333614  99.0564089  74.3008113  36.7715271
 101.7728893  72.7817716  34.1904686 101.6942524  72.4477580  35.0840444
 102.5938559  73.2739484  34.1896158 104.4707084  65.6479456  47.3981005
 104.4383404  64.7095456  47.5840688 105.0807707  65.7263492  46.6646829
  96.3090415  64.5175509  33.4408209  97.2549519  64.3881717  33.5096627
  95.9304660  63.7790170  33.9177637 104.6201572  62.4390499  47.4439288
 104.1040621  61.6548956  47.2569217 105.5041521  62.1109216  47.6085807
 102.2812299  56.1831515  43.4035100 102.0837120  55.8746603  44.2878432
 102.8912005  56.9093153  43.5333030 110.2883634  66.7095462  46.5387041
 111.0187022  66.4480751  47.0994745 109.6790579  65.9724184  46.5789109
 108.3698931  64.8503325  47.1361493 107.6432094  64.7159290  46.5277984
 107.9546218  65.1580154  47.9418211  96.1929107  68.5693255  54.9008866
  97.1132117  68.7471854  55.0948912  96.1578690  67.6249300  54.7488565
  94.4933332  62.4425485  33.3763094  93.5864787  62.1458598  33.4525807
  94.7709313  62.1455303  32.5097380  85.4111272  63.7631848  43.8262140
  85.0914056  62.9097157  43.5336514  84.8644700  63.9780426  44.5820108
  89.1891180  66.4794289  47.5431647  89.4077189  67.4111397  47.5619681
  89.6016954  66.1202264  48.3286451  96.1095397  56.9862375  39.5307335
  95.2996126  56.6409460  39.9062581  96.7979814  56.6769918  40.1194947
  98.0385946  56.0640421  41.1531632  98.5916984  56.4835875  41.8121655
  98.2756032  55.1376170  41.1954588  94.0619045  62.0527495  56.9334396
  93.9615772  63.0021852  56.8646487  93.8440587  61.7245734  56.0610466
  93.2632116  59.3012420  33.5175073  94.1251280  59.6267318  33.7770890
  93.4482461  58.5143916  33.0048139  85.2799532  67.3834760  45.7955262
  84.5863004  66.9688713  45.2825216  86.0272523  67.4255296  45.1988681
 101.4164753  58.1740947  40.6610296 100.8363422  58.8325751  40.2788348
 101.1500686  57.3518291  40.2497714  99.8668319  57.5746004  42.8631616
 100.3668098  57.6862539  42.0545935 100.5103927  57.2707057  43.5032425
  93.9250315  65.4824634  55.7499457  93.4417397  66.2824994  55.9563346
  94.0111254  65.4932579  54.7966901  87.1936275  67.3153014  43.6721277
  87.1706963  67.4140701  42.7203160  87.5036911  68.1618164  43.9938443
  89.8523653  69.3729169  47.7867891  90.8066906  69.3413111  47.7197823
  89.6536176  68.9119792  48.6018117  90.4423035  67.9430285  50.3538689
  91.2615924  68.4374363  50.3773526  90.7159842  67.0262253  50.3256256
 100.1989631  60.3341037  39.7166644  99.3115486  60.6190688  39.4986839
 100.6143620  60.1734800  38.8693921 103.5504167  60.3587558  43.4320984
 104.3264557  60.8484010  43.7045600 102.8252301  60.7845612  43.8892853
 105.9876726  61.0715177  44.4894924 106.5821216  60.8310913  43.7788232
 106.0603309  60.3522308  45.1168460  88.2073881  74.9148788  44.8038089
  88.0728349  74.1549189  44.2376087  87.7905944  75.6389688  44.3366878
  99.3432844  70.0985712  33.8114664 100.0468694  70.3035714  34.4272320
  98.6195493  70.6662474  34.0763748 100.1730655  65.8495573  39.9316934
 100.1165856  66.3064124  39.0924567 100.7258997  65.0886258  39.7539777
 103.9835461  61.6385305  40.7567054 103.7272395  61.2381940  41.5875262
 103.3588329  62.3529099  40.6317193 108.2947798  64.3781378  43.2638345
 107.7347356  64.4474567  44.0369907 107.6891302  64.2022363  42.5437842
  91.3643007  75.8118105  45.0156532  91.2475391  76.7563538  44.9135222
  90.5435453  75.5091667  45.4042331 101.2519542  70.5368241  35.8613124
 102.0865146  70.1049439  35.6790599 101.0903885  70.3650255  36.7890019
 100.9065434  67.0400354  37.2269464 100.8514238  66.8744626  36.2857908
 100.2811489  67.7476387  37.3831653  85.6957949  62.2768419  51.0530886
  86.3416813  61.7667373  51.5418111  85.4875100  63.0137100  51.6274311
  98.2211341  69.3449266  56.5523026  99.0902501  69.5189918  56.1909661
  97.7418093  70.1643683  56.4298756  94.2161559  56.5408463  36.8054782
  94.2040229  57.4850303  36.9623053  95.1084981  56.3578609  36.5114243
  92.3897521  76.4646367  48.2312460  93.2924768  76.4969977  48.5478955
  92.1634891  75.5346818  48.2458796  94.1451123  75.2177354  44.8922539
  93.1946754  75.2179215  44.7786911  94.4483610  74.4710088  44.3758573
  98.0313679  53.1351240  41.0600719  97.2646075  52.5809726  41.2057401
  98.4424384  53.2073109  41.9214870  90.0355440  59.4236036  55.1505900
  90.8986901  59.0672840  55.3609225  89.4620851  59.0849930  55.8381304
 109.8803817  81.0537892  45.9568301 110.5182227  80.9344639  45.2531641
 109.7624660  82.0018736  46.0156253 106.6893523  81.0065320  45.8929826
 106.3512035  80.8906385  45.0050361 107.5583291  80.6056485  45.8730832
 102.5480339  82.8600796  41.8826717 101.9845204  82.7690733  41.1143004
 102.4332734  82.0400701  42.3629209 107.1713306  82.1600172  51.8516031
 107.1601947  81.7652970  50.9796535 107.3333946  81.4266244  52.4449803
 100.0944771  84.3551988  44.7210937 100.8866063  84.0142813  44.3057237
 100.3341421  84.4646963  45.6413091 108.1279898  86.5271764  37.1941182
 107.4767877  87.1125845  36.8075195 108.9224260  87.0577959  37.2536219
 102.0535525  83.6160901  37.5928316 102.8266401  83.0689888  37.4541192
 102.4060924  84.4805151  37.8042777 103.8920567  84.9437284  50.7995215
 103.6010433  85.8482914  50.6841882 104.5277552  84.9853811  51.5139285
 104.8176774  82.3214132  47.3896575 105.4140346  82.0970155  46.6753538
 104.8751746  81.5798878  47.9922023 104.3901803  79.7753567  35.2246766
 104.6427323  79.2535089  34.4630229 103.4526362  79.6119713  35.3273450
 109.4345085  78.7789346  43.0321509 110.2208175  78.3608769  42.6811926
 109.6983790  79.6835438  43.2003158 109.6055163  84.2162196  37.7310166
 108.9700996  84.2896823  38.4431071 109.2752569  84.8055795  37.0529245
 114.8353512  78.7164579  43.9354488 115.5678684  78.1463796  44.1692317
 114.0792868  78.3286179  44.3760993 104.1098091  81.6781673  37.4271141
 103.9934349  81.0026577  38.0952225 104.2200351  81.1914047  36.6103294
 106.4529632  81.1391821  41.1317830 106.0887839  80.6122441  41.8430752
 107.3096748  80.7490290  40.9584316 112.3578933  72.4286153  48.3949096
 112.0262258  73.2981564  48.1710311 111.7624546  72.1122437  49.0743127
 106.0935119  76.1681720  36.1279179 106.2609522  77.0361957  36.4949650
 105.9032288  76.3309002  35.2040468 108.8510452  84.6298699  47.7945009
 108.5511175  85.5323738  47.6860816 108.5061512  84.3630882  48.6466162
 102.3022934  81.0812496  43.8281713 101.3773430  80.9488710  44.0359405
 102.5507347  81.8606715  44.3251656 112.2507596  77.1481239  45.4742446
 111.3424473  77.0796648  45.1801207 112.1995192  77.6253184  46.3024272
 106.0724340  78.6239378  37.1125845 105.9523965  79.0696428  37.9511326
 105.3776928  78.9724695  36.5539384  99.6631745  80.7245769  44.6625502
  99.7924126  80.9780248  45.5764914  98.9829196  81.3173477  44.3430158
 103.8331232  91.3943019  40.7615977 103.7555262  92.3450845  40.8404457
 103.2292876  91.0488892  41.4190903 106.3248462  78.5670885  53.4177344
 105.5481796  79.1264805  53.4080208 106.9639025  79.0527668  53.9392214
 114.1169243  75.3497678  47.2520320 113.4743623  75.6430211  46.6060115
 113.6124171  75.2350598  48.0573517 111.7709406  79.0960851  37.9406179
 112.6827262  79.3288238  37.7653877 111.2619053  79.6797895  37.3781258
 104.5794834  81.3756338  52.9795311 105.3209519  81.9141382  52.7030134
 103.8731820  82.0022627  53.1366862 110.0550174  83.5185479  51.5767472
 110.4633530  83.0767889  50.8322104 109.3327435  82.9438106  51.8301665
 106.4081244  78.4558085  48.9501029 107.2542439  78.8797499  49.0935678
 106.3479882  77.7991710  49.6439592 110.3778989  84.0786669  45.3319761
 109.7487851  84.2432383  44.6295829 109.9904651  84.4928279  46.1030725
 114.2568220  85.0141107  42.6864125 113.5719259  85.3940009  42.1361158
 114.3412070  85.6236434  43.4196072 109.5580689  76.1162454  50.6082203
 109.3141621  76.8704514  50.0716478 109.8340620  76.4947801  51.4429450
 111.5119152  82.6601066  49.2859468 111.7236047  83.3032826  48.6093849
 111.4648900  81.8263383  48.8181398 109.1145381  75.2718887  46.1896040
 108.2529860  75.5700140  46.4812778 109.1407816  75.4889286  45.2577073
 105.9306950  83.8161077  42.5969846 106.3945296  84.0948780  41.8074469
 105.6663748  82.9144522  42.4142937 102.8231031  83.3632559  45.5349609
 103.3932389  83.7919827  44.8967094 103.4139143  83.0815144  46.2333795
 104.8675836  79.9384230  39.4059411 105.5699880  80.3905273  39.8733338
 104.5356465  79.2968049  40.0339304 103.3156198  78.5295986  53.7810621
 102.6854859  79.2112267  54.0146017 103.2092286  78.4179068  52.8363759
  98.6101170  78.1967782  44.7076545  97.8200224  78.4525311  44.2316655
  99.1012418  79.0116120  44.8128585 112.6264980  85.5373022  47.4581826
 113.4482424  85.1353209  47.1764507 112.6227383  85.4341256  48.4097941
 100.5615916  78.5612362  41.6660021  99.7647079  78.6731056  42.1843517
 100.3341508  78.8999014  40.8000912 106.3921583  85.0857065  49.6142536
 106.4566016  85.5477472  50.4500708 105.6832507  84.4554430  49.7424846
  96.8938873  78.4498273  47.1391536  97.1446912  79.3345283  47.4049111
  97.4298422  78.2702874  46.3666627 106.1069601  86.7525172  39.4821516
 105.9715276  87.5976708  39.9106364 106.6479414  86.9544450  38.7187450
 102.5936941  72.8316752  56.1435872 102.2003886  72.2782951  56.8183516
 103.4103081  73.1427331  56.5342389  99.5598998  84.2700610  40.0549441
 100.0723519  85.0643861  40.2055006 100.2121711  83.5726901  39.9883043
 101.3693883  87.3866367  42.1372195 101.5460511  88.3084331  41.9493179
 102.1650717  87.0724786  42.5666574 105.5104902  74.2474631  53.7356128
 106.2514615  74.8481784  53.6560591 105.7422825  73.5052269  53.1774171
 100.6546240  79.4330999  52.0134358 100.5399755  78.5316256  52.3141457
  99.7990757  79.6794695  51.6619174 107.7338077  87.3748739  53.6121858
 107.2901932  86.5885117  53.2942763 108.3955291  87.5627889  52.9465749
 102.4925199  88.9044541  48.1382537 103.0432624  88.7761604  47.3659531
 101.6536675  89.2039430  47.7877430 109.8319316  87.6551539  51.6403260
 109.8137791  88.4760420  51.1483529 110.7539236  87.5305614  51.8653401
 106.2892370  85.1695668  52.4826768 106.8220706  84.4083957  52.2526076
 105.7606451  84.8769320  53.2250923 109.4562065  70.2755734  48.0120410
 109.1126334  71.1657376  47.9359520 109.8241027  70.0857392  47.1489995
  97.5247915  82.5989265  40.8309012  98.3623137  83.0086273  40.6142720
  97.7026183  81.6588707  40.8009206 109.4212347  80.2664345  36.5192845
 108.9058971  81.0368950  36.7581232 109.1489656  79.5929482  37.1425906
 107.0059458  75.1114046  41.5778083 106.1501055  74.7220897  41.3983722
 107.4186410  75.1906007  40.7177869 108.5358605  72.6460389  45.9769643
 108.0323401  72.6090525  45.1637448 108.8289212  73.5553132  46.0366300
 104.7801491  72.7299119  44.9835825 105.6454488  72.5341928  44.6241714
 104.8479000  72.5009471  45.9105182 114.3946621  83.0196700  38.4546018
 113.6176064  82.6807860  38.0101181 115.0738102  83.0249323  37.7800984
 109.2098651  78.1391437  38.3452626 108.9048786  78.4537587  39.1962769
 110.1629093  78.2172857  38.3879959 107.6545082  84.2981661  39.9945580
 107.1266444  83.5634420  39.6818818 107.1532585  85.0756337  39.7485548
 112.6337928  82.4930681  45.1112626 111.9761603  83.1829943  45.1992755
 113.4378328  82.8827113  45.4546613 102.3863810  74.9601327  42.3552192
 102.9607562  74.7376509  41.6225385 102.9734792  75.0290022  43.1080793
 111.4443387  80.8475054  43.1616568 111.9575269  81.4805046  43.6638278
 112.0944611  80.2476249  42.7959928 102.7133397  76.9905788  36.3748077
 101.8770709  77.3280475  36.6957352 102.5738167  76.8554768  35.4375214
 104.6886478  71.8342576  41.0827261 104.0350890  71.5191593  40.4583876
 104.6466952  71.2118316  41.8087084 105.7997683  82.1161871  32.9980553
 104.8924744  81.8851125  33.1971702 106.2968715  81.3199490  33.1854535
 108.7065761  90.8259378  35.9177239 108.0327460  91.1291075  36.5262197
 109.0931583  91.6288459  35.5682696 107.9224218  78.3224510  45.4074909
 107.0046779  78.5439457  45.2496597 108.3384362  78.3970820  44.5486616
 108.7059266  79.7215925  40.5377589 109.4531085  80.2337322  40.2284711
 108.9750855  79.3999978  41.3981983 106.9785916  82.2174466  37.5204543
 106.0697135  81.9333499  37.6177013 107.0081000  82.6373545  36.6607850
 112.2105183  85.8281055  41.2895711 111.7567510  84.9871965  41.3460901
 111.5799150  86.4642454  41.6270491 111.1538103  76.7573041  42.5196378
 110.4160860  76.2450428  42.8506621 111.4064876  76.3173423  41.7079655
 110.6538123  87.6657552  42.2245529 110.9461097  88.2262609  41.5057895
 111.1636743  87.9586113  42.9798688 111.2549730  69.5349293  43.1138148
 111.5608607  68.6746657  42.8264063 111.9802335  70.1266914  42.9137141
  97.5474086  79.9379980  41.5019745  97.3498486  79.3449341  40.7770812
  96.9920750  79.6332190  42.2195684 105.5270810  79.8303087  43.6214339
 105.5819420  78.8776923  43.5456815 104.7162012  79.9862526  44.1055637
 106.6762004  83.7583210  34.8592622 106.2381434  83.0419069  34.3998259
 107.4172445  83.9859324  34.2977713 103.4663170  78.4480146  41.3804717
 102.6531035  78.7474317  41.7869910 103.9622164  78.0535835  42.0979200
 105.6171748  88.4437903  43.3138982 105.5747927  88.6698750  42.3847514
 106.5334447  88.2101278  43.4624783 109.0637382  78.9121971  50.2119611
 109.4186769  79.1393444  51.0714077 109.7109513  79.2440348  49.5896867
 114.7935119  82.0340407  40.9168940 114.6553017  82.2242003  39.9890130
 114.4371337  82.7959789  41.3736992 102.9577245  76.0198502  46.9965952
 103.5976624  75.8787261  46.2988916 102.1254775  75.7333015  46.6204554
 114.8204498  84.1016934  45.9280212 115.2541005  84.0092223  46.7763266
 115.5336079  84.0774434  45.2900228 103.7337549  85.3200932  43.1100945
 104.5278147  84.8251252  42.9083520 103.0229241  84.7918795  42.7468650
 108.5532393  87.7019028  47.4613313 108.6069415  88.2709964  48.2291028
 107.6847174  87.8720913  47.0967350 100.0420312  79.4644014  39.1860698
  99.1117900  79.4028469  39.4030660 100.1377784  78.9419967  38.3897339
  99.9605861  75.9898827  41.7738939 100.2212678  76.9044160  41.6648100
 100.7823033  75.5223269  41.9235552 101.4330786  77.4036584  48.9437764
 102.1053840  77.1953946  48.2950413 100.6060573  77.2058670  48.5042996
 115.6820048  84.1440634  48.4613097 115.8755938  85.0486445  48.7072372
 115.5820666  83.6848053  49.2951682 107.3356358  74.0298525  50.9603425
 106.6884274  74.7288475  50.8667901 108.1057374  74.4634669  51.3279673
 110.7435156  84.2947377  54.0353978 110.5920663  84.0657929  53.1184062
 110.7339836  85.2517978  54.0485323 107.5120493  81.8679290  49.0200244
 108.4412553  82.0190449  48.8469212 107.0911523  81.9563311  48.1648891
 106.3108825  85.8929954  46.7898782 106.1719910  85.5248739  47.6624720
 105.5223421  86.4077594  46.6182740 106.9056977  90.9939051  38.1324319
 107.0808732  90.5227094  38.9469941 106.2189765  91.6204817  38.3605579
 107.8614040  85.2711557  44.1787620 107.5263872  85.2312327  45.0745270
 107.3617985  84.6056273  43.7058030 101.8358284  80.6779187  49.7040201
 101.6978082  79.9459426  50.3051740 102.7463207  80.5888087  49.4224389
 110.7973231  82.6167591  34.4524679 110.1802402  81.8914419  34.3557732
 110.3289720  83.3776952  34.1091754 104.4640584  80.3899146  49.1923881
 105.1740203  79.7492338  49.1510499 104.4209893  80.6412041  50.1150061
 112.4527363  87.3266500  52.1130460 112.3939909  86.6425720  51.4461043
 112.8546881  88.0685490  51.6611086 103.1769518  77.3764364  51.0119520
 102.6406875  76.9255103  51.6641116 102.5886227  77.5110273  50.2689984
 101.4718062  94.1428413  44.9064179 101.7114660  94.7746938  45.5843197
 100.6287258  93.7916453  45.1929538 102.5871777  76.8353016  33.5745984
 101.7101244  76.7141816  33.2108230 103.0629530  76.0439094  33.3224872
 112.4544770  85.2906084  50.3444439 111.5671549  84.9532005  50.4670838
 113.0243321  84.5589115  50.5813205  94.1073917  81.6230175  43.6687491
  94.7944957  81.3091905  43.0808506  93.9522046  82.5271540  43.3954742
  98.9108640  76.5120372  48.0972515  98.8266828  75.9046041  47.3622924
  98.0891346  77.0029390  48.0982011 105.9845924  89.9507536  47.3105683
 105.9116095  90.7562507  47.8224987 105.5423317  90.1499502  46.4853704
 105.7735703  89.1879306  40.8208504 104.9903225  89.7300986  40.9146729
 106.4728449  89.7053286  41.2202745 109.0832353  74.9973935  43.4642710
 109.5801053  74.2443898  43.1443780 108.3119335  75.0338252  42.8985919
 108.4444607  89.8494370  49.4663841 109.1572579  90.4841835  49.3939743
 107.9534636  89.9458236  48.6503843 110.1662134  83.7545623  41.0381133
 109.2318413  83.8747085  40.8685837 110.3438803  82.8518089  40.7741143
 105.6667322  77.1391318  43.1914394 105.2965110  76.5862359  43.8795300
 106.1626415  76.5349452  42.6389394 113.5534685  79.5962942  41.5731167
 114.0195138  80.4290933  41.4991470 114.0042186  79.1307923  42.2776426
 103.4956521  87.5988813  50.2869412 104.1965980  88.2325296  50.4398806
 103.0251636  87.9403545  49.5265051 111.6210917  85.9406763  38.5717319
 111.8970761  85.8263358  39.4811193 110.7515415  85.5424248  38.5329492
 111.5251348  71.9643529  45.6122068 110.6114428  72.1947756  45.7804275
 111.9544450  72.0481973  46.4636101 111.2957807  80.1533421  48.1121963
 110.6429257  80.4009328  47.4574415 111.6738187  79.3397559  47.7784440
 108.2564981  90.1893114  42.2150133 108.4387375  89.3714770  42.6777885
 109.0797967  90.4060806  41.7775023 108.5907146  89.1161299  39.4765181
 109.1194913  88.6053754  38.8635343 108.8535366  88.8003829  40.3410714
 107.3445380  80.8953232  54.5988000 106.6686017  80.7947361  55.2690375
 108.1673014  80.7392446  55.0623997  99.0924239  87.1325168  47.2200515
  99.6777676  86.3868856  47.3528419  98.8949077  87.4429125  48.1037179
 101.9462894  90.1676416  42.2362957 101.2773269  90.6522543  41.7526997
 101.8075764  90.4145636  43.1506336  93.6841894  79.7030769  45.9404958
  93.7225993  79.1694359  46.7342076  93.1782186  79.1765974  45.3215935
 106.0868163  92.2020159  48.8345616 106.6386471  92.3651781  49.5994701
 106.4274356  92.7924597  48.1625640 101.0632656  74.5495309  49.4367500
 101.1273982  75.4110140  49.0244898 100.9999776  73.9369311  48.7039859
 100.5384928  76.6218442  53.0840535 101.1656967  76.2395519  53.6978059
  99.6812847  76.4032644  53.4496227 110.9379037  87.0281417  54.6894270
 111.4818941  87.6411375  54.1949225 110.3565882  87.5860995  55.2061283
  97.3150471  78.4294871  39.0158889  97.6103912  77.5205549  38.9625943
  96.4138507  78.4082610  38.6939892 109.2236550  90.1502135  45.8209298
 109.0987689  89.3491875  45.3120243 109.8815641  90.6448328  45.3323268
 100.8444718  76.5050867  44.9986438 100.1231304  77.1186835  44.8593911
 101.6337974  77.0408632  44.9203084 111.2871458  87.9511155  47.4488848
 110.3401794  87.8316506  47.3767175 111.6354231  87.0633653  47.5315109
 103.6471032  73.8405294  51.2727090 104.1705433  74.0867590  52.0353399
 103.4283365  74.6725329  50.8530227  99.0438313  76.1108968  39.1398215
  98.7151019  75.2306347  38.9573320  99.3977683  76.0556637  40.0274604
 108.2917892  87.7463871  43.6493200 108.1442854  86.8180579  43.8300770
 109.1171385  87.7683962  43.1650275 102.1580136  76.3981938  39.5073692
 102.4976208  76.9267860  38.7852301 102.6052256  76.7362344  40.2832259
 111.8952013  88.5692430  44.7358073 112.8198561  88.3635291  44.5982524
 111.7267317  88.3208831  45.6447414 104.8523577  74.7818989  48.9576760
 104.5120397  73.9826802  49.3597440 104.1462583  75.0820700  48.3853593
 105.5040049  71.8668301  47.4104083 106.3266118  71.3928780  47.2882974
 105.7478112  72.6458785  47.9102770 104.1448283  74.8956560  37.7066985
 104.8656646  75.2737813  37.2030702 103.5213587  75.6145437  37.8101963
 108.2879406  75.6001709  38.6425317 108.5043020  76.4826347  38.3414145
 107.8073473  75.2087922  37.9130959 103.0278627  78.5587422  45.2196062
 102.8823208  78.8727725  46.1120343 102.5503831  79.1772322  44.6666961
 104.8875010  75.5489970  45.2676951 104.8736579  74.6531063  44.9309249
 105.6047438  75.5560634  45.9015237 106.7401141  75.9827310  47.3130079
 106.4818919  76.9044381  47.3114409 106.2086181  75.5857745  48.0030543
 111.6847330  89.0878097  40.0920164 111.8584207  88.5224520  39.3394017
 112.1776221  89.8878992  39.9099654  97.5024289  81.0992766  48.1583723
  96.9577758  81.8752574  48.2903997  98.3803639  81.4463571  48.0002845
 104.2911906  74.4304350  40.5364522 104.4127817  73.5020996  40.7355409
 104.0013948  74.4443036  39.6242837 107.1603097  72.1159261  43.6731241
 107.1824793  72.1798594  42.7183221 107.5771156  71.2763769  43.8671748
 112.6722502  88.4044862  37.1917063 113.3673407  89.0251554  37.4104377
 113.0145652  87.5540213  37.4669440  98.2890311  80.2262663  51.0513880
  97.5472047  80.3745298  51.6378510  97.9683056  80.4870928  50.1880629
 114.5713925  85.8544567  38.7204393 115.0965249  86.1931840  37.9953713
 114.4836278  84.9191583  38.5367528 106.2333974  89.7678641  50.8494270
 106.5421100  89.5227788  51.7216970 107.0309456  89.9725279  50.3613140
 106.2554586  91.9216551  43.0799646 105.8159576  91.4292929  43.7732503
 107.0062703  91.3789518  42.8391722  98.7346925  88.1128091  43.0824275
  99.5604945  87.8131863  42.7022918  98.3840977  87.3435714  43.5314063
 103.7028458  87.4654560  45.1521948 103.0808467  86.8025265  44.8524176
 104.3733325  87.4915692  44.4695596  96.9355530  86.0314418  44.0413208
  96.0987438  85.6036592  43.8597209  96.9079175  86.2246861  44.9783999
 103.7752986  75.9436348  54.7454454 103.8241141  76.8198470  54.3632224
 104.3175500  75.4013741  54.1726097 114.2607831  86.4877471  54.0255591
 113.4703375  86.4701610  53.4860091 114.0241186  87.0265765  54.7804628
 114.3805706  83.3369937  51.3388320 114.4303711  83.1719945  52.2803843
 114.2719630  82.4697196  50.9486201 103.2641965  86.0158483  38.6280409
 103.4130085  86.6993947  37.9747081 104.0708409  85.9963573  39.1429864
 111.6709469  79.3200865  52.6547627 112.5719332  79.1807330  52.3631624
 111.7457443  79.4855320  53.5945804 106.0052274  76.6967720  51.5000813
 105.1355584  76.9901286  51.2283401 106.2411754  77.2808165  52.2208076
 115.8823903  85.7566879  51.5830341 115.5908712  86.1196859  52.4193802
 115.2696034  85.0433887  51.4043673 114.1311091  80.8799493  50.0510399
 114.6065213  81.0727140  49.2429251 113.2076657  80.9358679  49.8053783
 101.0194598  82.0423661  39.6341478 100.7740640  81.1385991  39.8321688
 101.1890513  82.0440811  38.6920956 108.7091308  72.9147337  49.0166233
 109.2273252  73.6508364  48.6912722 108.3546441  73.2211330  49.8512992
 100.2890246  77.7752018  37.1327639  99.5959491  77.8496373  36.4767675
 100.0441997  77.0112362  37.6549156 108.9603902  69.3347620  44.5367130
 109.2405656  68.6670809  45.1627556 109.7454509  69.5276715  44.0241794
 106.7637371  88.5106613  36.0992156 106.1911338  89.1296801  35.6462628
 107.3370164  89.0605975  36.6332078 112.8312760  77.7565254  48.2838705
 113.7830183  77.8563351  48.3050929 112.6616211  76.9643522  48.7936789
 110.8527140  74.8420837  48.4698106 110.2577072  75.1225849  47.7744594
 110.5676837  75.3314738  49.2414847 109.9834630  88.7943764  37.2300738
 110.9165304  88.7289325  37.4333614 109.8957843  89.6300030  36.7715271
 112.6122647  88.1109634  34.1904686 112.5336279  87.7769498  35.0840444
 113.4332314  88.6031402  34.1896158 107.1484169  79.8467426  33.4408209
 108.0943274  79.7173634  33.5096627 106.7698414  79.1082088  33.9177637
 113.1206054  71.5123432  43.4035100 112.9230875  71.2038520  44.2878432
 113.7305759  72.2385071  43.5333030 107.0322862  83.8985172  54.9008866
 107.9525871  84.0763771  55.0948912 106.9972445  82.9541218  54.7488565
 105.3327086  77.7717403  33.3763094 104.4258542  77.4750515  33.4525807
 105.6103067  77.4747221  32.5097380  96.2505027  79.0923766  43.8262140
  95.9307811  78.2389074  43.5336514  95.7038455  79.3072344  44.5820108
 100.0284934  81.8086207  47.5431647 100.2470944  82.7403315  47.5619681
 100.4410708  81.4494181  48.3286451 106.9489152  72.3154292  39.5307335
 106.1389880  71.9701377  39.9062581 107.6373569  72.0061836  40.1194947
 108.8779700  71.3932339  41.1531632 109.4310739  71.8127793  41.8121655
 109.1149787  70.4668087  41.1954588 104.9012799  77.3819413  56.9334396
 104.8009526  78.3313770  56.8646487 104.6834342  77.0537652  56.0610466
 104.1025871  74.6304338  33.5175073 104.9645035  74.9559236  33.7770890
 104.2876215  73.8435834  33.0048139  96.1193287  82.7126677  45.7955262
  95.4256758  82.2980630  45.2825216  96.8666278  82.7547214  45.1988681
 112.2558507  73.5032864  40.6610296 111.6757176  74.1617668  40.2788348
 111.9894440  72.6810209  40.2497714 110.7062074  72.9037922  42.8631616
 111.2061852  73.0154457  42.0545935 111.3497682  72.5998975  43.5032425
 104.7644070  80.8116552  55.7499457 104.2811151  81.6116912  55.9563346
 104.8505009  80.8224496  54.7966901  98.0330029  82.6444931  43.6721277
  98.0100717  82.7432619  42.7203160  98.3430666  83.4910082  43.9938443
 100.6917407  84.7021086  47.7867891 101.6460661  84.6705029  47.7197823
 100.4929931  84.2411710  48.6018117 101.2816789  83.2722202  50.3538689
 102.1009678  83.7666281  50.3773526 101.5553597  82.3554170  50.3256256
 111.0383385  75.6632955  39.7166644 110.1509240  75.9482605  39.4986839
 111.4537374  75.5026718  38.8693921 114.3897922  75.6879476  43.4320984
 115.1658312  76.1775928  43.7045600 113.6646056  76.1137530  43.8892853
  99.0467636  90.2440706  44.8038089  98.9122104  89.4841107  44.2376087
  98.6299698  90.9681606  44.3366878 110.1826599  85.4277629  33.8114664
 110.8862449  85.6327632  34.4272320 109.4589248  85.9954391  34.0763748
 111.0124409  81.1787491  39.9316934 110.9559611  81.6356042  39.0924567
 111.5652752  80.4178175  39.7539777 114.8229215  76.9677222  40.7567054
 114.5666149  76.5673858  41.5875262 114.1982083  77.6821016  40.6317193
 102.2036762  91.1410023  45.0156532 102.0869146  92.0855455  44.9135222
 101.3829208  90.8383584  45.4042331 112.0913296  85.8660159  35.8613124
 112.9258900  85.4341357  35.6790599 111.9297639  85.6942172  36.7890019
 111.7459188  82.3692272  37.2269464 111.6907992  82.2036543  36.2857908
 111.1205244  83.0768305  37.3831653  96.5351703  77.6060336  51.0530886
  97.1810567  77.0959290  51.5418111  96.3268855  78.3429018  51.6274311
 109.0605096  84.6741184  56.5523026 109.9296255  84.8481836  56.1909661
 108.5811847  85.4935601  56.4298756 105.0555314  71.8700381  36.8054782
 105.0433984  72.8142221  36.9623053 105.9478736  71.6870526  36.5114243
 103.2291276  91.7938285  48.2312460 104.1318523  91.8261895  48.5478955
 103.0028646  90.8638736  48.2458796 104.9844878  90.5469271  44.8922539
 104.0340509  90.5471133  44.7786911 105.2877364  89.8002006  44.3758573
 108.8707433  68.4643157  41.0600719 108.1039829  67.9101644  41.2057401
 109.2818138  68.5365026  41.9214870 100.8749194  74.7527953  55.1505900
 101.7380656  74.3964758  55.3609225 100.3014605  74.4141848  55.8381304
 113.3874093  98.1892714  41.8826717 112.8238958  98.0982651  41.1143004
 113.2726488  97.3692619  42.3629209 110.9338525  99.6843906  44.7210937
 111.7259817  99.3434730  44.3057237 111.1735175  99.7938881  45.6413091
 112.8929279  98.9452819  37.5928316 113.6660155  98.3981806  37.4541192
 113.2454678  99.8097068  37.8042777 115.2295557  95.1045485  35.2246766
 115.4821078  94.5827006  34.4630229 114.2920116  94.9411631  35.3273450
 114.9491846  97.0073591  37.4271141 114.8328104  96.3318494  38.0952225
 115.0594106  96.5205965  36.6103294 113.1416688  96.4104414  43.8281713
 112.2167185  96.2780628  44.0359405 113.3901102  97.1898633  44.3251656
 110.5025499  96.0537687  44.6625502 110.6317881  96.3072166  45.5764914
 109.8222951  96.6465395  44.3430158 113.6624786  98.6924477  45.5349609
 114.2326143  99.1211745  44.8967094 114.2532898  98.4107061  46.2333795
 114.1549952  93.8587904  53.7810621 113.5248613  94.5404185  54.0146017
 114.0486040  93.7470986  52.8363759 109.4494925  93.5259700  44.7076545
 108.6593979  93.7817229  44.2316655 109.9406172  94.3408038  44.8128585
 111.4009670  93.8904279  41.6660021 110.6040834  94.0022974  42.1843517
 111.1735262  94.2290932  40.8000912 107.7332628  93.7790191  47.1391536
 107.9840666  94.6637200  47.4049111 108.2692176  93.5994792  46.3666627
 113.4330695  88.1608670  56.1435872 113.0397641  87.6074868  56.8183516
 114.2496836  88.4719248  56.5342389 110.3992753  99.5992528  40.0549441
 110.9117274 100.3935778  40.2055006 111.0515466  98.9018819  39.9883043
 111.4939994  94.7622916  52.0134358 111.3793509  93.8608174  52.3141457
 110.6384512  95.0086613  51.6619174 108.3641670  97.9281182  40.8309012
 109.2016892  98.3378191  40.6142720 108.5419937  96.9880625  40.8009206
 113.2257564  90.2893245  42.3552192 113.8001316  90.0668426  41.6225385
 113.8128547  90.3581939  43.1080793 113.5527152  92.3197706  36.3748077
 112.7164464  92.6572392  36.6957352 113.4131921  92.1846686  35.4375214
 115.5280232  87.1634494  41.0827261 114.8744645  86.8483511  40.4583876
 115.4860706  86.5410234  41.8087084 108.3867841  95.2671898  41.5019745
 108.1892241  94.6741258  40.7770812 107.8314505  94.9624108  42.2195684
 114.3056924  93.7772064  41.3804717 113.4924790  94.0766235  41.7869910
 114.8015919  93.3827753  42.0979200 113.7970999  91.3490419  46.9965952
 114.4370379  91.2079179  46.2988916 112.9648530  91.0624933  46.6204554
 110.8814067  94.7935932  39.1860698 109.9511655  94.7320387  39.4030660
 110.9771539  94.2711884  38.3897339 110.7999616  91.3190744  41.7738939
 111.0606433  92.2336078  41.6648100 111.6216788  90.8515187  41.9235552
 112.2724541  92.7328502  48.9437764 112.9447594  92.5245864  48.2950413
 111.4454327  92.5350588  48.5042996 112.6752038  96.0071105  49.7040201
 112.5371836  95.2751343  50.3051740 113.5856962  95.9180005  49.4224389
 114.0163273  92.7056282  51.0119520 113.4800630  92.2547020  51.6641116
 113.4279981  92.8402191  50.2689984 113.4265532  92.1644933  33.5745984
 112.5494998  92.0433734  33.2108230 113.9023285  91.3731012  33.3224872
 104.9467672  96.9522093  43.6687491 105.6338712  96.6383823  43.0808506
 104.7915801  97.8563458  43.3954742 109.7502394  91.8412290  48.0972515
 109.6660583  91.2337959  47.3622924 108.9285100  92.3321308  48.0982011
 109.9317993 102.4617086  47.2200515 110.5171430 101.7160774  47.3528419
 109.7342832 102.7721043  48.1037179 104.5235648  95.0322686  45.9404958
 104.5619748  94.4986277  46.7342076 104.0175941  94.5057892  45.3215935
 111.9026410  89.8787227  49.4367500 111.9667737  90.7402058  49.0244898
 111.8393531  89.2661228  48.7039859 111.3778683  91.9510359  53.0840535
 112.0050722  91.5687437  53.6978059 110.5206602  91.7324561  53.4496227
 108.1544226  93.7586788  39.0158889 108.4497667  92.8497467  38.9625943
 107.2532261  93.7374528  38.6939892 111.6838473  91.8342785  44.9986438
 110.9625058  92.4478753  44.8593911 112.4731728  92.3700550  44.9203084
 114.4864786  89.1697212  51.2727090 115.0099188  89.4159508  52.0353399
 114.2677119  90.0017246  50.8530227 109.8832067  91.4400886  39.1398215
 109.5544773  90.5598265  38.9573320 110.2371438  91.3848555  40.0274604
 112.9973890  91.7273856  39.5073692 113.3369963  92.2559777  38.7852301
 113.4446011  92.0654262  40.2832259 115.6917331  90.1110907  48.9576760
 115.3514152  89.3118720  49.3597440 114.9856337  90.4112618  48.3853593
 114.9842038  90.2248478  37.7066985 115.7050400  90.6029730  37.2030702
 114.3607342  90.9437354  37.8101963 113.8672382  93.8879340  45.2196062
 113.7216963  94.2019643  46.1120343 113.3897585  94.5064240  44.6666961
 108.3418044  96.4284684  48.1583723 107.7971512  97.2044492  48.2903997
 109.2197394  96.7755489  48.0002845 115.1305661  89.7596268  40.5364522
 115.2521572  88.8312914  40.7355409 114.8407703  89.7734954  39.6242837
 109.1284066  95.5554580  51.0513880 108.3865802  95.7037216  51.6378510
 108.8076810  95.8162846  50.1880629 107.7749285 101.3606336  44.0413208
 106.9381193 100.9328510  43.8597209 107.7472930 101.5538779  44.9783999
 114.6146740  91.2728265  54.7454454 114.6634896  92.1490388  54.3632224
 115.1569254  90.7305658  54.1726097 111.8588353  97.3715578  39.6341478
 111.6134394  96.4677908  39.8321688 112.0284267  97.3732729  38.6920956
 111.1284000  93.1043936  37.1327639 110.4353245  93.1788291  36.4767675
 110.8835752  92.3404280  37.6549156 107.0898781  94.4215684  43.8262140
 106.7701565  93.5680992  43.5336514 106.5432209  94.6364262  44.5820108
 110.8678689  97.1378125  47.5431647 111.0864698  98.0695232  47.5619681
 111.2804462  96.7786099  48.3286451 115.7406554  92.7111330  56.9334396
 115.6403281  93.6605687  56.8646487 115.5228096  92.3829569  56.0610466
 114.9419625  89.9596255  33.5175073 115.8038789  90.2851154  33.7770890
 115.1269970  89.1727751  33.0048139 106.9587041  98.0418595  45.7955262
 106.2650513  97.6272548  45.2825216 107.7060032  98.0839132  45.1988681
 115.6037824  96.1408469  55.7499457 115.1204906  96.9408829  55.9563346
 115.6898763  96.1516414  54.7966901 108.8723784  97.9736849  43.6721277
 108.8494472  98.0724536  42.7203160 109.1824420  98.8202000  43.9938443
 111.5311162 100.0313004  47.7867891 112.4854415  99.9996946  47.7197823
 111.3323685  99.5703628  48.6018117 112.1210544  98.6014120  50.3538689
 112.9403433  99.0958199  50.3773526 112.3947351  97.6846088  50.3256256
 107.3745458  92.9352254  51.0530886 108.0204322  92.4251208  51.5418111
 107.1662609  93.6720936  51.6274311 111.7142949  90.0819871  55.1505900
 112.5774410  89.7256676  55.3609225 111.1408360  89.7433766  55.8381304
  47.2749291  -5.4969052  31.6309485  47.5145889  -4.8650528  32.3088504
  46.4318487  -5.8481012  31.9174845  59.1905322  -1.4504752  28.6072023
  58.6270187  -1.5414815  27.8388311  59.0757717  -2.2704847  29.0874516
  56.7369754   0.0446440  31.4456244  57.5291046  -0.2962735  31.0302543
  56.9766404   0.1541415  32.3658397  64.7704881   2.2166216  23.9186488
  64.1192861   2.8020296  23.5320502  65.5649244   2.7472411  23.9781526
  58.6960508  -0.6944647  24.3173623  59.4691384  -1.2415660  24.1786498
  59.0485907   0.1699603  24.5288084  60.5345551   0.6331735  37.5240522
  60.2435417   1.5377366  37.4087188  61.1702535   0.6748263  38.2384591
  66.2480146  -0.0943352  24.4555473  65.6125979  -0.0208725  25.1676377
  65.9177552   0.4950247  23.7774552  65.4935436   0.3193151  34.5190316
  65.1936159   1.2218190  34.4106123  65.1486495   0.0525334  35.3711469
  56.3056728  -3.5859779  31.3870809  56.4349109  -3.3325300  32.3010221
  55.6254179  -2.9932071  31.0675464  60.4756215   7.0837471  27.4861283
  60.3980245   8.0345296  27.5649764  59.8717859   6.7383344  28.1436210
  62.5731934  -0.4944471  29.3215153  63.0370279  -0.2156768  28.5319775
  62.3088732  -1.3961026  29.1388243  59.4656015  -0.9472989  32.2594916
  60.0357372  -0.5185721  31.6212400  60.0564127  -1.2290404  32.9579102
  63.0346567   0.7751517  36.3387843  63.0990999   1.2371924  37.1746015
  62.3257491   0.1448882  36.4670153  62.7494584   2.4419624  26.2066823
  62.6140259   3.2871160  26.6351671  63.2904397   2.6438902  25.4432757
  56.2023982  -0.0404938  26.7794748  56.7148502   0.7538313  26.9300313
  56.8546695  -0.7378647  26.7128350  58.0118866   3.0760819  28.8617501
  58.1885495   3.9978783  28.6738485  58.8075700   2.7619238  29.2911881
  64.3763061   3.0643191  40.3367165  63.9326915   2.2779569  40.0188070
  65.0380274   3.2522341  39.6711056  59.1350182   4.5938992  34.8627844
  59.6857607   4.4656056  34.0904838  58.2961658   4.8933881  34.5122736
  66.4744299   3.3445991  38.3648566  66.4562774   4.1654872  37.8728836
  67.3964219   3.2200066  38.5898708  62.9317353   0.8590120  39.2072075
  63.4645690   0.0978408  38.9771383  62.4031434   0.5663772  39.9496229
  54.1672899  -1.7116283  27.5554319  55.0048121  -1.3019275  27.3388026
  54.3451166  -2.6516841  27.5254513  64.2970066  -0.0123887  26.7190887
  63.7691427  -0.7471128  26.4064124  63.7957568   0.7650789  26.4730855
  65.3490745   6.5153830  22.6422546  64.6752443   6.8185527  23.2507504
  65.7356567   7.3182910  22.2928003  68.8530167   1.5175507  28.0141017
  68.3992494   0.6766417  28.0706208  68.2224133   2.1536906  28.3515798
  67.2963106   3.3552004  28.9490836  67.5886080   3.9157061  28.2303201
  67.8061727   3.6480565  29.7043995  63.3186987  -0.5522338  21.5837928
  62.8806417  -1.2686480  21.1243566  64.0597428  -0.3246224  21.0223020
  62.2596731   4.1332355  30.0384289  62.2172910   4.3593201  29.1092821
  63.1759430   3.8995730  30.1870090  60.3762532   1.0095384  29.8346252
  61.1703130   0.5145704  29.6328826  59.6654224   0.4813247  29.4713957
  65.1957376   3.3913480  34.1858619  65.2494399   3.9604416  34.9536335
  64.3272158   3.5615365  33.8212656  62.9533808   1.5824406  33.5144089
  62.8144894   1.2143191  34.3870027  62.1648404   2.0972046  33.3428046
  63.5481960   6.6833503  24.8569625  63.7233716   6.2121546  25.6715248
  62.8614748   7.3099269  25.0850886  64.5039023   0.9606009  30.9032926
  64.1688856   0.9206779  31.7990576  64.0042969   0.2950725  30.4303337
  69.0952346   3.0160951  38.8375766  69.0364893   2.3320172  38.1706349
  69.4971865   3.7579942  38.3856392  58.1143045   9.8322865  31.6309485
  58.3539643  10.4641390  32.3088504  57.2712242   9.4810905  31.9174845
  50.7498901  -2.6875373  30.3932797  51.4369941  -3.0013643  29.8053813
  50.5947029  -1.7834008  30.1200049  62.6270907   5.6401988  34.0350989
  62.5541079   6.4456959  34.5470294  62.1848300   5.8393954  33.2099011
  62.4160687   4.8773758  27.5453811  61.6328209   5.4195438  27.6392035
  63.1153432   5.3947737  27.9448052  65.0869591   5.5388822  36.1909148
  65.7997563   6.1736287  36.1185049  64.5959619   5.6352688  35.3749150
  60.1381504   3.2883265  37.0114719  60.8390964   3.9219748  37.1644113
  59.6676619   3.6297997  36.2510358  68.2635900   1.6301215  25.2962626
  68.5395744   1.5157810  26.2056500  67.3940399   1.2318700  25.2574799
  64.8989964   5.8787566  28.9395439  65.0812358   5.0609222  29.4023192
  65.7222950   6.0955258  28.5020329  65.2332129   4.8055751  26.2010488
  65.7619896   4.2948206  25.5880650  65.4960349   4.4898281  27.0656021
  55.7349222   2.8219620  33.9445821  56.3202659   2.0763308  34.0773726
  55.5374061   3.1323577  34.8282485  58.5887877   5.8570868  28.9608264
  57.9198253   6.3416995  28.4772304  58.4500747   6.1040088  29.8751642
  50.3266877  -4.6074779  32.6650265  50.3650976  -5.1411189  33.4587383
  49.8207170  -5.1339574  32.0461242  62.7293146   7.8914611  35.5590922
  63.2811454   8.0546233  36.3240007  63.0699339   8.4819049  34.8870947
  67.5804020   2.7175869  41.4139577  68.1243924   3.3305827  40.9194531
  66.9990865   3.2755447  41.9306590  65.8661533   5.8396587  32.5454604
  65.7412673   5.0386327  32.0365550  66.5240624   6.3342780  32.0568574
  67.9296442   3.6405607  34.1734154  66.9826777   3.5210958  34.1012481
  68.2779215   2.7528105  34.2560416  64.9342875   3.4358323  30.3738507
  64.7867837   2.5075030  30.5546077  65.7596368   3.4578414  29.8895582
  68.5376997   4.2586882  31.4603379  69.4623544   4.0529743  31.3227831
  68.3692300   4.0103283  32.3692721  68.3272313   4.7772549  26.8165471
  68.5009190   4.2118972  26.0639323  68.8201204   5.5773444  26.6344961
  54.1449273  -3.2112782  34.8829030  53.6002741  -2.4352974  35.0149304
  55.0228623  -2.8641977  34.7248151  69.3147485   4.0939314  23.9162369
  70.0098390   4.7146006  24.1349684  69.6570636   3.2434665  24.1914747
  54.9315295  -4.0842885  37.7759187  54.1897031  -3.9360250  38.3623817
  54.6108039  -3.8234620  36.9125936  62.8758957   5.4573093  37.5739577
  63.1846084   5.2122240  38.4462276  63.6734439   5.6619731  37.0858447
  62.8979569   7.6111002  29.8044953  62.4584560   7.1187381  30.4977810
  63.6487686   7.0683970  29.5637028  55.3771908   3.8022543  29.8069581
  56.2029928   3.5026315  29.4268225  55.0265960   3.0330166  30.2559370
  60.3453441   3.1549012  31.8767255  59.7233451   2.4919717  31.5769483
  61.0158308   3.1810143  31.1940903  53.5780513   1.7208870  30.7658515
  52.7412422   1.2931044  30.5842516  53.5504159   1.9141313  31.7029306
  70.9032815   2.1771923  40.7500898  70.1128358   2.1596062  40.2105397
  70.6666169   2.7160217  41.5049934  59.9066948   1.7052935  25.3525715
  60.0555069   2.3888399  24.6992388  60.7133392   1.6858025  25.8675171
  57.6619581  -2.2681887  26.3586784  57.4165623  -3.1719557  26.5566994
  57.8315496  -2.2664737  25.4166262  63.4062354   4.2001065  22.8237463
  62.8336321   4.8191252  22.3707935  63.9795148   4.7500427  23.3577385
  66.6259614   4.4838215  23.9546045  67.5590287   4.4183777  24.1578921
  66.5382827   5.3194482  23.4960578  69.2547630   3.8004086  20.9149993
  69.1761262   3.4663949  21.8085751  70.0757297   4.2925854  20.9141465
  56.6709917  -2.5019341  34.2676953  56.8895927  -1.5702233  34.2864987
  57.0835691  -2.8611367  35.0531757  52.7618270  -1.5978871  32.5200568
  52.0681741  -2.0124918  32.0070523  53.5091261  -1.5558334  31.9233987
  54.6755012  -1.6660617  30.3966583  54.6525701  -1.5672930  29.4448466
  54.9855649  -0.8195466  30.7183749  57.3342390   0.3915538  34.5113198
  58.2885644   0.3599481  34.4443129  57.1354914  -0.0693838  35.3263424
  57.9241772  -1.0383346  37.0783995  58.7434661  -0.5439267  37.1018833
  58.1978580  -1.9551378  37.0501563  55.6892619   5.9335158  31.5283396
  55.5547087   5.1735559  30.9621394  55.2724681   6.6576058  31.0612185
  66.8251582   1.1172081  20.5359971  67.5287432   1.3222084  21.1517627
  66.1014231   1.6848843  20.8009054  58.8461745   6.8304475  31.7401838
  58.7294129   7.7749907  31.6380529  58.0254191   6.5278036  32.1287637
  68.7338280   1.5554610  22.5858431  69.5683883   1.1235809  22.4035906
  68.5722622   1.3836624  23.5135325  65.7030079   0.3635636  43.2768333
  66.5721239   0.5376288  42.9154968  65.2236830   1.1830052  43.1544062
  59.8716259   7.4832737  34.9557767  60.7743506   7.5156347  35.2724262
  59.6453629   6.5533188  34.9704103  61.6269861   6.2363723  31.6167845
  60.6765492   6.2365585  31.5032218  61.9302347   5.4896458  31.1003880
  77.3622555  12.0724262  32.6813608  78.0000965  11.9531009  31.9776948
  77.2443398  13.0205105  32.7401560  74.1712261  12.0251690  32.6175132
  73.8330772  11.9092754  31.7295667  75.0402029  11.6242855  32.5976139
  70.0299077  13.8787166  28.6072023  69.4663942  13.7877103  27.8388311
  69.9151472  13.0587070  29.0874516  74.6532044  13.1786541  38.5761338
  74.6420685  12.7839340  37.7041842  74.8152683  12.4452614  39.1695109
  67.5763509  15.3738358  31.4456244  68.3684800  15.0329182  31.0302543
  67.8160159  15.4833333  32.3658397  75.6098635  17.5458134  23.9186488
  74.9586615  18.1312214  23.5320502  76.4042998  18.0764329  23.9781526
  69.5354262  14.6347271  24.3173623  70.3085138  14.0876258  24.1786498
  69.8879661  15.4991520  24.5288084  71.3739305  15.9623653  37.5240522
  71.0829171  16.8669284  37.4087188  72.0096289  16.0040181  38.2384591
  72.2995512  13.3400502  34.1141882  72.8959084  13.1156524  33.3998845
  72.3570483  12.5985247  34.7167329  71.8720540  10.7939937  21.9492073
  72.1246061  10.2721458  21.1875536  70.9345099  10.6306082  22.0518756
  76.9163823   9.7975715  29.7566816  77.7026912   9.3795139  29.4057233
  77.1802527  10.7021808  29.9248464  77.0873900  15.2348566  24.4555473
  76.4519733  15.3083192  25.1676377  76.7571307  15.8242165  23.7774552
  82.3172250   9.7350949  30.6599794  83.0497422   9.1650165  30.8937624
  81.5611606   9.3472549  31.1006300  71.5916829  12.6968043  24.1516448
  71.4753087  12.0212946  24.8197532  71.7019089  12.2100417  23.3348601
  73.9348370  12.1578190  27.8563137  73.5706577  11.6308811  28.5676058
  74.7915486  11.7676659  27.6829622  73.5753857   7.1868090  22.8524485
  73.7428259   8.0548326  23.2194956  73.3851026   7.3495371  21.9285775
  76.3329190  15.6485069  34.5190316  76.0329913  16.5510107  34.4106123
  75.9880250  15.3817252  35.3711469  69.7841672  12.0998866  30.5527020
  68.8592168  11.9675080  30.7604712  70.0326085  12.8793085  31.0496962
  79.7326334   8.1667609  32.1987753  78.8243211   8.0983017  31.9046514
  79.6813930   8.6439554  33.0269578  73.5543078   9.6425747  23.8371152
  73.4342703  10.0882798  24.6756632  72.8595666   9.9911065  23.2784690
  67.1450483  11.7432139  31.3870809  67.2742864  11.9966618  32.3010221
  66.4647934  12.3359847  31.0675464  71.3149970  22.4129389  27.4861283
  71.2374000  23.3637214  27.5649764  70.7111614  22.0675262  28.1436210
  73.8067200   9.5857254  40.1422650  73.0300534  10.1451175  40.1325515
  74.4457763  10.0714037  40.6637520  81.5987980   6.3684047  33.9765627
  80.9562361   6.6616580  33.3305421  81.0942909   6.2536968  34.7818824
  79.2528144  10.1147220  24.6651486  80.1646000  10.3474607  24.4899184
  78.7437791  10.6984265  24.1026565  72.0613572  12.3942708  39.7040617
  72.8028256  12.9327752  39.4275441  71.3550557  13.0208997  39.8612169
  77.5368912  14.5371848  38.3012779  77.9452268  14.0954259  37.5567411
  76.8146173  13.9624476  38.5546972  73.8899982   9.4744455  35.6746336
  74.7361177   9.8983869  35.8180985  73.8298619   8.8178079  36.3684899
  77.8597726  15.0973039  32.0565068  77.2306589  15.2618753  31.3541135
  77.4723388  15.5114648  32.8276032  81.7386958  16.0327477  29.4109431
  81.0537996  16.4126378  28.8606465  81.8230808  16.6422803  30.1441379
  77.0399427   7.1348823  37.3327509  76.7960359   7.8890884  36.7961785
  77.3159358   7.5134171  38.1674756  78.9937890  13.6787436  36.0104775
  79.2054785  14.3219196  35.3339156  78.9467638  12.8449752  35.5426705
  76.5964119   6.2905256  32.9141347  75.7348598   6.5886510  33.2058085
  76.6226553   6.5075655  31.9822380  73.4125688  14.8347447  29.3215153
  73.8764034  15.1135150  28.5319775  73.1482486  13.9330892  29.1388243
  70.3049769  14.3818929  32.2594916  70.8751126  14.8106197  31.6212400
  70.8957881  14.1001513  32.9579102  72.3494574  10.9570599  26.1304718
  73.0518618  11.4091643  26.5978644  72.0175203  10.3154418  26.7584611
  70.7974936   9.5482356  40.5055927  70.1673596  10.2298637  40.7391324
  70.6911024   9.4365438  39.5609065  66.0919908   9.2154152  31.4321851
  65.3018962   9.4711681  30.9561962  66.5831156  10.0302490  31.5373892
  80.1083718  16.5559391  34.1827132  80.9301161  16.1539578  33.9009814
  80.1046121  16.4527625  35.1343248  68.0434654   9.5798731  28.3905328
  67.2465817   9.6917426  28.9088824  67.8160246   9.9185383  27.5246219
  73.8740321  16.1043434  36.3387843  73.9384754  16.5663842  37.1746015
  73.1651245  15.4740799  36.4670153  64.3757611   9.4684642  33.8636842
  64.6265650  10.3531652  34.1294418  64.9117160   9.2889244  33.0911934
  88.1989711  12.8998140  30.5312104  87.4453419  12.3305538  30.3756108
  88.3337252  12.8660804  31.4782738  73.5888339  17.7711542  26.2066823
  73.4534014  18.6163078  26.6351671  74.1298151  17.9730820  25.4432757
  70.0755678   3.8503122  42.8681178  69.6822624   3.2969320  43.5428823
  70.8921819   4.1613700  43.2587696  67.0417736  15.2886980  26.7794748
  67.5542257  16.0830230  26.9300313  67.6940449  14.5913270  26.7128350
  68.8512621  18.4052736  28.8617501  69.0279249  19.3270701  28.6738485
  69.6469454  18.0911156  29.2911881  72.9923639   5.2661001  40.4601435
  73.7333353   5.8668154  40.3805897  73.2241562   4.5238639  39.9019477
  68.1364977  10.4517368  38.7379665  68.0218493   9.5502625  39.0386763
  67.2809495  10.6981065  38.3864481  75.2156815  18.3935108  40.3367165
  74.7720669  17.6071487  40.0188070  75.8774029  18.5814259  39.6711056
  69.9743936  19.9230910  34.8627844  70.5251362  19.7947973  34.0904838
  69.1355412  20.2225799  34.5122736  77.3138053  18.6737908  38.3648566
  77.2956529  19.4946789  37.8728836  78.2357973  18.5491984  38.5898708
  73.7711107  16.1882038  39.2072075  74.3039444  15.4270326  38.9771383
  73.2425189  15.8955690  39.9496229  65.0066653  13.6175634  27.5554319
  65.8441875  14.0272643  27.3388026  65.1844921  12.6775076  27.5254513
  76.9031085  11.2850715  23.2438152  76.3877709  12.0555320  23.4826539
  76.6308394  10.6115851  23.8671213  74.4878196   6.1300416  28.3023390
  73.6319793   5.7407266  28.1229029  74.9005148   6.2092377  27.4423176
  76.0177343   3.6646759  32.7014950  75.5142138   3.6276894  31.8882755
  76.3107950   4.5739502  32.7611606  72.2620229   3.7485489  31.7081131
  73.1273225   3.5528297  31.3487021  72.3297738   3.5195841  32.6350488
  81.8765359  14.0383070  25.1791325  81.0994802  13.6994229  24.7346487
  82.5556840  14.0435693  24.5046290  76.6917388   9.1577807  25.0697933
  76.3867524   9.4723956  25.9208076  77.6447830   9.2359227  25.1125266
  75.1363820  15.3168030  26.7190887  74.6085182  14.5820790  26.4064124
  74.6351323  16.0942707  26.4730855  80.1156666  13.5117051  31.8357933
  79.4580341  14.2016312  31.9238062  80.9197065  13.9013483  32.1791919
  69.8682548   5.9787697  29.0797498  70.4426300   5.7562878  28.3470691
  70.4553530   6.0476391  29.8326100  78.9262125  11.8661424  29.8861875
  79.4394007  12.4991415  30.3883585  79.5763349  11.2662619  29.5205235
  70.1952135   8.0092158  23.0993384  69.3589447   8.3466844  23.4202658
  70.0556905   7.8741137  22.1620521  72.1705215   2.8528946  27.8072568
  71.5169628   2.5377963  27.1829183  72.1285690   2.2304686  28.5332391
  73.2816420  13.1348241  19.7225860  72.3743482  12.9037494  19.9217009
  73.7787452  12.3385860  19.9099841  76.1884499  21.8445748  22.6422546
  75.5146198  22.1477445  23.2507504  76.5750321  22.6474828  22.2928003
  75.4042956   9.3410879  32.1320215  74.4865517   9.5625826  31.9741903
  75.8203099   9.4157190  31.2731923  76.1878004  10.7402295  27.2622896
  76.9349823  11.2523692  26.9530018  76.4569593  10.4186348  28.1227289
  74.4604654  13.2360836  24.2449850  73.5515873  12.9519868  24.3422320
  74.4899738  13.6559914  23.3853157  79.6923921  16.8467425  28.0141017
  79.2386248  16.0058335  28.0706208  79.0617888  17.4828823  28.3515798
  78.6356841   7.7759411  29.2441685  77.8979598   7.2636797  29.5751927
  78.8883614   7.3359793  28.4324962  78.1356860  18.6843922  28.9490836
  78.4279835  19.2448979  28.2303201  78.6455481  18.9772483  29.7043995
  65.0292824  10.9566350  28.2265052  64.8317224  10.3635710  27.5016119
  64.4739488  10.6518560  28.9440991  73.0089548  10.8489456  30.3459645
  73.0638158   9.8963293  30.2702122  72.1980750  11.0048895  30.8300944
  74.1580742  14.7769579  21.5837928  73.7200172  14.0605438  21.1243566
  74.8991182  15.0045694  21.0223020  70.9481908   9.4666516  28.1050024
  70.1349773   9.7660686  28.5115216  71.4440902   9.0722205  28.8224506
  73.0990486  19.4624273  30.0384289  73.0566664  19.6885119  29.1092821
  74.0153184  19.2287647  30.1870090  76.5456119   9.9308340  36.9364918
  76.9005507  10.1579813  37.7959384  77.1928251  10.2626717  36.3142173
  82.2753856  13.0526776  27.6414247  82.1371755  13.2428372  26.7135436
  81.9190075  13.8146159  28.0982298  70.4395982   7.0384871  33.7211259
  71.0795362   6.8973630  33.0234222  69.6073513   6.7519385  33.3449861
  82.3023236  15.1203303  32.6525519  82.7359743  15.0278592  33.5008573
  83.0154817  15.0960804  32.0145535  71.2156286  16.3387302  29.8346252
  72.0096885  15.8437622  29.6328826  70.5047979  15.8105165  29.4713957
  76.0351131  18.7205397  34.1858619  76.0888153  19.2896334  34.9536335
  75.1665912  18.8907282  33.8212656  67.5239050  10.4830384  25.9106004
  66.5936638  10.4214839  26.1275966  67.6196522   9.9606336  25.1142645
  67.4424599   7.0085196  28.4984246  67.7031416   7.9230530  28.3893406
  68.2641771   6.5409639  28.6480859  68.9149524   8.4222954  35.6683070
  69.5872578   8.2140316  35.0195719  68.0879311   8.2245040  35.2288303
  83.1638786  15.1627004  35.1858404  83.3574676  16.0672814  35.4317679
  83.0639404  14.7034423  36.0196989  74.8175096   5.0484894  37.6848731
  74.1703011   5.7474844  37.5913208  75.5876112   5.4821038  38.0524979
  78.2253894  15.3133747  40.7599285  78.0739401  15.0844298  39.8429368
  78.2158574  16.2704348  40.7730630  74.9939231  12.8865659  35.7445551
  75.9231291  13.0376819  35.5714518  74.5730261  12.9749680  34.8894198
  73.7927562  16.9116324  33.5144089  73.6538648  16.5435108  34.3870027
  73.0042159  17.4263963  33.3428046  74.3875714  22.0125420  24.8569625
  74.5627470  21.5413463  25.6715248  73.7008502  22.6391186  25.0850886
  75.3432778  16.2897926  30.9032926  75.0082610  16.2498696  31.7990576
  74.8436723  15.6242642  30.4303337  69.3177022  11.6965557  36.4285508
  69.1796819  10.9645795  37.0297047  70.2281945  11.6074457  36.1469695
  78.2791969  13.6353961  21.1769986  77.6621140  12.9100789  21.0803039
  77.8108458  14.3963321  20.8337060  71.9459322  11.4085516  35.9169187
  72.6558941  10.7678708  35.8755806  71.9028630  11.6598411  36.8395368
  79.9346101  18.3452869  38.8375766  79.8758647  17.6612089  38.1706349
  80.3365619  19.0871859  38.3856392  70.6588256   8.3950734  37.7364827
  70.1225613   7.9441472  38.3886423  70.0704965   8.5296643  36.9935291
  68.9536800  25.1614783  31.6309485  69.1933398  25.7933307  32.3088504
  68.1105996  24.8102823  31.9174845  70.0690515   7.8539385  20.2991290
  69.1919981   7.7328186  19.9353537  70.5448268   7.0625463  20.0470179
  79.9363508  16.3092453  37.0689746  79.0490287  15.9718375  37.1916145
  80.5062059  15.5775484  37.3058511  61.5892655  12.6416545  30.3932797
  62.2763695  12.3278275  29.8053813  61.4340784  13.5457909  30.1200049
  66.3927377   7.5306741  34.8217821  66.3085566   6.9232411  34.0868231
  65.5710084   8.0215760  34.8227318  73.4664662  20.9693905  34.0350989
  73.3934833  21.7748877  34.5470294  73.0242055  21.1685871  33.2099011
  73.2554441  20.2065675  27.5453811  72.4721963  20.7487356  27.6392035
  73.9547186  20.7239655  27.9448052  76.5651091   6.0160305  30.1888016
  77.0619791   5.2630267  29.8689086  75.7938073   6.0524622  29.6231226
  84.4180849  11.7200670  31.8306308  84.4070725  12.6025386  31.4600241
  83.5498228  11.3672221  31.6360845  75.9263345  20.8680739  36.1909148
  76.6391317  21.5028204  36.1185049  75.4353374  20.9644605  35.3749150
  77.6480872  14.7731992  27.7626440  76.7137151  14.8933455  27.5931144
  77.8257540  13.8704459  27.4986449  73.1486060   8.1577688  29.9159701
  72.7783848   7.6048728  30.6040606  73.6445152   7.5535821  29.3634701
  81.0353423  10.6149311  28.2976474  81.5013875  11.4477303  28.2236776
  81.4860924  10.1494293  29.0021732  70.9775259  18.6175183  37.0114719
  71.6784718  19.2511666  37.1644113  70.5070374  18.9589914  36.2510358
  79.1029654  16.9593133  25.2962626  79.3789498  16.8449727  26.2056500
  78.2334153  16.5610618  25.2574799  78.7776545  11.1719790  34.8367269
  78.1247995  11.4195698  34.1819722  79.1556924  10.3583929  34.5029746
  75.7383718  21.2079484  28.9395439  75.9206113  20.3901140  29.4023192
  76.5616704  21.4247176  28.5020329  76.0725884  20.1347669  26.2010488
  76.6013650  19.6240123  25.5880650  76.3354103  19.8190199  27.0656021
  74.8264118  11.9139601  41.3233306  74.1504755  11.8133731  41.9935681
  75.6491751  11.7578815  41.7869303  66.5742977  18.1511538  33.9445821
  67.1596413  17.4055226  34.0773726  66.3767815  18.4615495  34.8282485
  69.4281632  21.1862785  28.9608264  68.7592007  21.6708913  28.4772304
  69.2894502  21.4332006  29.8751642  61.1660631  10.7217138  32.6650265
  61.2044731  10.1880729  33.4587383  60.6600924  10.1952344  32.0461242
  73.5686900  23.2206529  35.5590922  74.1205208  23.3838150  36.3240007
  73.9093094  23.8110967  34.8870947  68.5451394   5.5681679  36.1612807
  68.6092720   6.4296510  35.7490205  68.4818514   4.9555680  35.4285165
  68.0203666   7.6404811  39.8085841  68.6475705   7.2581889  40.4223366
  67.1631585   7.4219013  40.1741534  78.4197775  18.0467786  41.4139577
  78.9637679  18.6597745  40.9194531  77.8384620  18.6047365  41.9306590
  64.7969209   9.4481240  25.7404196  65.0922650   8.5391919  25.6871250
  63.8957245   9.4268980  25.4185198  76.7055288  21.1688504  32.5454604
  76.5806427  20.3678244  32.0365550  77.3634379  21.6634698  32.0568574
  68.3263456   7.5237237  31.7231745  67.6050042   8.1373205  31.5839218
  69.1156712   8.0595002  31.6448391  78.7690196  18.9697525  34.1734154
  77.8220532  18.8502876  34.1012481  79.1172969  18.0820023  34.2560416
  71.1289769   4.8591663  37.9972396  71.6524171   5.1053960  38.7598706
  70.9102103   5.6911698  37.5775534  66.5257051   7.1295338  25.8643521
  66.1969757   6.2492717  25.6818627  66.8796421   7.0743007  26.7519910
  75.7736629  18.7650241  30.3738507  75.6261592  17.8366948  30.5546077
  76.5990123  18.7870331  29.8895582  69.6398874   7.4168308  26.2318999
  69.9794946   7.9454229  25.5097607  70.0870994   7.7548714  27.0077565
  79.3770751  19.5878799  31.4603379  80.3017299  19.3821661  31.3227831
  79.2086055  19.3395201  32.3692721  72.3342315   5.8005359  35.6822067
  71.9939135   5.0013172  36.0842747  71.6281321   6.1007069  35.1098900
  71.6267021   5.9142929  24.4312292  72.3475383   6.2924182  23.9276008
  71.0032325   6.6331806  24.5347270  75.7698144   6.6188078  25.3670624
  75.9861758   7.5012716  25.0659452  75.2892211   6.2274292  24.6376266
  70.5097365   9.5773792  31.9441369  70.3641946   9.8914095  32.8365650
  70.0322569  10.1958692  31.3912267  72.3693748   6.5676340  31.9922258
  72.3555317   5.6717433  31.6554556  73.0866176   6.5747003  32.6260544
  74.2219879   7.0013680  34.0375386  73.9637657   7.9230750  34.0359716
  73.6904919   6.6044114  34.7275850  79.1666067  20.1064467  26.8165471
  79.3402945  19.5410889  26.0639323  79.6594959  20.9065362  26.6344961
  64.9843027  12.1179136  34.8829030  64.4396495  12.8938944  35.0149304
  65.8622377  12.4649940  34.7248151  71.7730644   5.4490720  27.2609828
  71.8946555   4.5207366  27.4600716  71.4832686   5.4629406  26.3488144
  85.0205459  12.8700890  28.4355771  85.4636605  12.1208215  28.0374894
  84.1431969  12.8611026  28.0529503  80.1541240  19.4231231  23.9162369
  80.8492145  20.0437924  24.1349684  80.4964390  18.5726583  24.1914747
  65.7709049  11.2449032  37.7759187  65.0290785  11.3931668  38.3623817
  65.4501793  11.5057298  36.9125936  82.0532663  16.8730937  25.4449700
  82.5783987  17.2118210  24.7199020  81.9655016  15.9377952  25.2612835
  73.7152712  20.7865011  37.5739577  74.0239838  20.5414157  38.4462276
  74.5128194  20.9911649  37.0858447  73.7373324  22.9402920  29.8044953
  73.2978314  22.4479299  30.4977810  74.4881441  22.3975888  29.5637028
  66.2165663  19.1314461  29.8069581  67.0423683  18.8318233  29.4268225
  65.8659715  18.3622083  30.2559370  71.1847196  18.4840929  31.8767255
  70.5627205  17.8211634  31.5769483  71.8552063  18.5102061  31.1940903
  64.4174268  17.0500787  30.7658515  63.5806176  16.6222962  30.5842516
  64.3897913  17.2433231  31.7029306  71.2571723   6.9622717  41.4699761
  71.3059879   7.8384840  41.0877530  71.7994238   6.4200110  40.8971404
  81.7426569  17.5063841  40.7500898  80.9522113  17.4887979  40.2105397
  81.5059924  18.0452134  41.5049934  81.8624444  14.3556307  38.0633626
  81.9122449  14.1906314  39.0049149  81.7538368  13.4883566  37.6731507
  70.7460703  17.0344853  25.3525715  70.8948823  17.7180317  24.6992388
  71.5527146  17.0149943  25.8675171  79.1528207  10.3387235  39.3792933
  80.0538069  10.1993700  39.0876931  79.2276181  10.5041690  40.3191111
  73.4871012   7.7154090  38.2246119  72.6174321   8.0087656  37.9528708
  73.7230492   8.2994535  38.9453383  83.3642641  16.7753248  38.3075648
  83.0727449  17.1383229  39.1439109  82.7514772  16.0620257  38.1288980
  84.5638323  14.3406128  30.8278218  85.3985215  14.7795932  30.9915779
  84.6997452  13.8644781  30.0086464  81.6129829  11.8985863  36.7755706
  82.0883951  12.0913509  35.9674557  80.6895395  11.9545049  36.5299090
  68.5013336  13.0610030  26.3586784  68.2559378  12.1572360  26.5566994
  68.6709250  13.0627181  25.4166262  76.1910046   3.9333707  35.7411540
  76.7091990   4.6694734  35.4158028  75.8365179   4.2397700  36.5758299
  67.7708983   8.7938388  23.8572946  67.0778228   8.8682743  23.2012982
  67.5260735   8.0298731  24.3794463  74.2456108  19.5292983  22.8237463
  73.6730075  20.1483170  22.3707935  74.8188902  20.0792345  23.3577385
  80.3131498   8.7751623  35.0084012  81.2648921   8.8749721  35.0296236
  80.1434949   7.9829892  35.5182096  78.3345878   5.8607206  35.1943413
  77.7395810   6.1412219  34.4989901  78.0495574   6.3501107  35.9660154
  77.4653368  19.8130133  23.9546045  78.3984041  19.7475695  24.1578921
  77.3776581  20.6486400  23.4960578  80.0941385  19.1296003  20.9149993
  80.0155016  18.7955867  21.8085751  80.9151052  19.6217771  20.9141465
  82.7919576  11.9957743  34.1226311  82.7595896  11.0573744  34.3085995
  83.4020200  12.0741780  33.3892136  74.6302907  10.8653796  20.1653515
  75.5762012  10.7360004  20.2341933  74.2517152  10.1268458  20.6422943
  82.9414065   8.7868786  34.1684594  82.4253113   8.0027243  33.9814523
  83.8254013   8.4587503  34.3331114  88.6096126  13.0573750  33.2632348
  89.3399514  12.7959038  33.8240051  88.0003071  12.3202472  33.3034416
  86.6911423  11.1981612  33.8606799  85.9644587  11.0637577  33.2523291
  86.2758710  11.5058441  34.6663517  74.5141599  14.9171542  41.6254172
  75.4344609  15.0950141  41.8194219  74.4791182  13.9727587  41.4733872
  72.8145824   8.7903772  20.1008400  71.9077279   8.4936885  20.1771114
  73.0921805   8.4933590  19.2342687  63.7323764  10.1110136  30.5507447
  63.4126549   9.2575444  30.2581821  63.1857193  10.3258714  31.3065414
  67.5103672  12.8272577  34.2676953  67.7289682  13.7589684  34.2864987
  67.9229446  12.4680551  35.0531757  74.4307890   3.3340662  26.2552642
  73.6208618   2.9887747  26.6307888  75.1192307   3.0248206  26.8440253
  72.3831537   8.4005782  43.6579702  72.2828264   9.3500139  43.5891793
  72.1653079   8.0724021  42.7855772  71.5844609   5.6490707  20.2420380
  72.4463773   5.9745606  20.5016197  71.7694953   4.8622203  19.7293445
  63.6012024  13.7313047  32.5200568  62.9075496  13.3167000  32.0070523
  64.3485015  13.7733584  31.9233987  72.2462807  11.8302921  42.4744764
  71.7629889  12.6303281  42.6808653  72.3323746  11.8410866  41.5212208
  65.5148767  13.6631301  30.3966583  65.4919455  13.7618988  29.4448466
  65.8249403  14.5096452  30.7183749  68.1736145  15.7207456  34.5113198
  69.1279398  15.6891398  34.4443129  67.9748668  15.2598080  35.3263424
  68.7635527  14.2908572  37.0783995  69.5828416  14.7852651  37.1018833
  69.0372335  13.3740540  37.0501563  78.5202123   6.6819324  26.4411951
  77.6327978   6.9668975  26.2232146  78.9356112   6.5213088  25.5939228
  81.8716659   6.7065845  30.1566290  82.6477049   7.1962298  30.4290907
  81.1464793   7.1323899  30.6138160  84.3089218   7.4193464  31.2140231
  84.9033709   7.1789200  30.5033539  84.3815802   6.7000595  31.8413767
  66.5286374  21.2627075  31.5283396  66.3940842  20.5027476  30.9621394
  66.1118436  21.9867975  31.0612185  77.6645337  16.4463999  20.5359971
  78.3681187  16.6514001  21.1517627  76.9407985  17.0140761  20.8009054
  78.4943147  12.1973860  26.6562241  78.4378348  12.6542412  25.8169874
  79.0471489  11.4364545  26.4785084  82.3047953   7.9863592  27.4812361
  82.0484887   7.5860228  28.3120568  81.6800821   8.7007386  27.3562500
  86.6160291  10.7259665  29.9883652  86.0559849  10.7952855  30.7615214
  86.0103794  10.5500650  29.2683148  69.6855499  22.1596392  31.7401838
  69.5687884  23.1041825  31.6380529  68.8647946  21.8569954  32.1287637
  79.5732034  16.8846528  22.5858431  80.4077638  16.4527727  22.4035906
  79.4116377  16.7128542  23.5135325  79.2277926  13.3878641  23.9514770
  79.1726730  13.2222913  23.0103214  78.6023981  14.0954674  24.1076960
  64.0170441   8.6246706  37.7776192  64.6629305   8.1145660  38.2663418
  63.8087592   9.3615387  38.3519618  76.5423833  15.6927553  43.2768333
  77.4114993  15.8668206  42.9154968  76.0630585  16.5121970  43.1544062
  72.5374052   2.8886750  23.5300089  72.5252722   3.8328590  23.6868360
  73.4297474   2.7056896  23.2359550  70.7110014  22.8124654  34.9557767
  71.6137260  22.8448265  35.2724262  70.4847384  21.8825105  34.9704103
  72.4663616  21.5655641  31.6167845  71.5159247  21.5657502  31.5032218
  72.7696102  20.8188375  31.1003880  68.3567932   5.7714323  41.8751207
  69.2199394   5.4151128  42.0854531  67.7833343   5.4328218  42.5626611
  88.2016309  27.4016179  32.6813608  88.8394719  27.2822927  31.9776948
  88.0837152  28.3497023  32.7401560  85.0106015  27.3543607  32.6175132
  84.6724527  27.2384672  31.7295667  85.8795784  26.9534772  32.5976139
  80.8692831  29.2079084  28.6072023  80.3057696  29.1169021  27.8388311
  80.7545226  28.3878988  29.0874516  85.4925798  28.5078459  38.5761338
  85.4814439  28.1131257  37.7041842  85.6546438  27.7744532  39.1695109
  78.4157263  30.7030275  31.4456244  79.2078555  30.3621100  31.0302543
  78.6553913  30.8125250  32.3658397  86.4492390  32.8750051  23.9186488
  85.7980370  33.4604132  23.5320502  87.2436753  33.4056246  23.9781526
  80.3748017  29.9639189  24.3173623  81.1478893  29.4168176  24.1786498
  80.7273416  30.8283438  24.5288084  82.2133060  31.2915571  37.5240522
  81.9222926  32.1961202  37.4087188  82.8490044  31.3332098  38.2384591
  83.1389266  28.6692419  34.1141882  83.7352839  28.4448442  33.3998845
  83.1964238  27.9277165  34.7167329  82.7114295  26.1231855  21.9492073
  82.9639815  25.6013376  21.1875536  81.7738854  25.9598000  22.0518756
  87.7557578  25.1267633  29.7566816  88.5420667  24.7087056  29.4057233
  88.0196282  26.0313725  29.9248464  87.9267655  30.5640483  24.4555473
  87.2913488  30.6375110  25.1676377  87.5965061  31.1534082  23.7774552
  93.1566005  25.0642866  30.6599794  93.8891177  24.4942083  30.8937624
  92.4005360  24.6764467  31.1006300  82.4310584  28.0259961  24.1516448
  82.3146842  27.3504864  24.8197532  82.5412843  27.5392335  23.3348601
  84.7742124  27.4870108  27.8563137  84.4100332  26.9600729  28.5676058
  85.6309240  27.0968577  27.6829622  90.6791425  18.7764440  35.1194403
  90.3474750  19.6459851  34.8955618  90.0837038  18.4600724  35.7988433
  84.4147611  22.5160007  22.8524485  84.5822014  23.3840244  23.2194956
  84.2244781  22.6787289  21.9285775  87.1722945  30.9776986  34.5190316
  86.8723668  31.8802025  34.4106123  86.8274004  30.7109170  35.3711469
  80.6235426  27.4290783  30.5527020  79.6985923  27.2966997  30.7604712
  80.8719839  28.2085002  31.0496962  90.5720088  23.4959527  32.1987753
  89.6636966  23.4274935  31.9046514  90.5207684  23.9731471  33.0269578
  84.3936832  24.9717665  23.8371152  84.2736458  25.4174716  24.6756632
  83.6989421  25.3202983  23.2784690  77.9844237  27.0724057  31.3870809
  78.1136618  27.3258536  32.3010221  77.3041688  27.6651765  31.0675464
  82.1543724  37.7421307  27.4861283  82.0767754  38.6929132  27.5649764
  81.5505368  37.3967179  28.1436210  84.6460954  24.9149172  40.1422650
  83.8694288  25.4743092  40.1325515  85.2851517  25.4005955  40.6637520
  92.4381735  21.6975965  33.9765627  91.7956115  21.9908498  33.3305421
  91.9336663  21.5828885  34.7818824  90.0921898  25.4439138  24.6651486
  91.0039755  25.6766525  24.4899184  89.5831546  26.0276182  24.1026565
  82.9007326  27.7234625  39.7040617  83.6422011  28.2619669  39.4275441
  82.1944312  28.3500914  39.8612169  88.3762666  29.8663766  38.3012779
  88.7846022  29.4246176  37.5567411  87.6539928  29.2916393  38.5546972
  84.7293736  24.8036373  35.6746336  85.5754931  25.2275786  35.8180985
  84.6692374  24.1469997  36.3684899  88.6991481  30.4264957  32.0565068
  88.0700343  30.5910671  31.3541135  88.3117143  30.8406566  32.8276032
  92.5780713  31.3619394  29.4109431  91.8931751  31.7418296  28.8606465
  92.6624562  31.9714721  30.1441379  87.8793182  22.4640741  37.3327509
  87.6354113  23.2182802  36.7961785  88.1553112  22.8426089  38.1674756
  89.8331644  29.0079353  36.0104775  90.0448540  29.6511113  35.3339156
  89.7861393  28.1741670  35.5426705  87.4357873  21.6197174  32.9141347
  86.5742352  21.9178428  33.2058085  87.4620308  21.8367573  31.9822380
  84.2519443  30.1639365  29.3215153  84.7157788  30.4427068  28.5319775
  83.9876241  29.2622809  29.1388243  81.1443524  29.7110846  32.2594916
  81.7144881  30.1398115  31.6212400  81.7351636  29.4293431  32.9579102
  83.1888329  26.2862517  26.1304718  83.8912372  26.7383561  26.5978644
  82.8568957  25.6446336  26.7584611  81.6368690  24.8774274  40.5055927
  81.0067351  25.5590555  40.7391324  81.5304778  24.7657355  39.5609065
  76.9313663  24.5446070  31.4321851  76.1412717  24.8003598  30.9561962
  77.4224910  25.3594408  31.5373892  90.9477472  31.8851309  34.1827132
  91.7694916  31.4831496  33.9009814  90.9439875  31.7819543  35.1343248
  78.8828408  24.9090649  28.3905328  78.0859571  25.0209343  28.9088824
  78.6554000  25.2477301  27.5246219  84.7134076  31.4335352  36.3387843
  84.7778508  31.8955759  37.1746015  84.0045000  30.8032717  36.4670153
  75.2151366  24.7976560  33.8636842  75.4659404  25.6823570  34.1294418
  75.7510914  24.6181162  33.0911934  99.0383465  28.2290057  30.5312104
  98.2847174  27.6597455  30.3756108  99.1731006  28.1952722  31.4782738
  84.4282093  33.1003460  26.2066823  84.2927768  33.9454995  26.6351671
  84.9691906  33.3022737  25.4432757  80.9149433  19.1795040  42.8681178
  80.5216379  18.6261238  43.5428823  81.7315573  19.4905618  43.2587696
  77.8811491  30.6178898  26.7794748  78.3936011  31.4122148  26.9300313
  78.5334204  29.9205188  26.7128350  79.6906375  33.7344654  28.8617501
  79.8673004  34.6562619  28.6738485  80.4863209  33.4203073  29.2911881
  83.8317394  20.5952919  40.4601435  84.5727107  21.1960072  40.3805897
  84.0635317  19.8530556  39.9019477  78.9758732  25.7809286  38.7379665
  78.8612247  24.8794543  39.0386763  78.1203250  26.0272983  38.3864481
  86.0550570  33.7227026  40.3367165  85.6114424  32.9363405  40.0188070
  86.7167783  33.9106177  39.6711056  80.8137691  35.2522828  34.8627844
  81.3645116  35.1239891  34.0904838  79.9749167  35.5517717  34.5122736
  88.1531808  34.0029826  38.3648566  88.1350283  34.8238707  37.8728836
  89.0751728  33.8783901  38.5898708  84.6104862  31.5173956  39.2072075
  85.1433199  30.7562244  38.9771383  84.0818943  31.2247607  39.9496229
  87.7774557  16.6234022  34.7365717  87.4338826  17.5135663  34.6604827
  88.1453520  16.4335679  33.8735302  75.8460408  28.9467552  27.5554319
  76.6835630  29.3564560  27.3388026  76.0238675  28.0066994  27.5254513
  87.7424840  26.6142633  23.2438152  87.2271463  27.3847237  23.4826539
  87.4702148  25.9407769  23.8671213  85.3271951  21.4592333  28.3023390
  84.4713547  21.0699184  28.1229029  85.7398902  21.5384294  27.4423176
  86.8571097  18.9938677  32.7014950  86.3535893  18.9568812  31.8882755
  87.1501704  19.9031419  32.7611606  83.1013983  19.0777406  31.7081131
  83.9666980  18.8820215  31.3487021  83.1691492  18.8487758  32.6350488
  92.7159114  29.3674987  25.1791325  91.9388557  29.0286147  24.7346487
  93.3950595  29.3727610  24.5046290  87.5311143  24.4869725  25.0697933
  87.2261278  24.8015874  25.9208076  88.4841585  24.5651145  25.1125266
  85.9757575  30.6459948  26.7190887  85.4478936  29.9112708  26.4064124
  85.4745077  31.4234624  26.4730855  90.9550421  28.8408969  31.8357933
  90.2974095  29.5308230  31.9238062  91.7590820  29.2305400  32.1791919
  80.7076302  21.3079614  29.0797498  81.2820054  21.0854796  28.3470691
  81.2947285  21.3768309  29.8326100  89.7655879  27.1953341  29.8861875
  90.2787761  27.8283333  30.3883585  90.4157103  26.5954537  29.5205235
  81.0345889  23.3384075  23.0993384  80.1983202  23.6758762  23.4202658
  80.8950659  23.2033055  22.1620521  83.0098970  18.1820863  27.8072568
  82.3563382  17.8669880  27.1829183  82.9679444  17.5596604  28.5332391
  84.1210175  28.4640158  19.7225860  83.2137237  28.2329412  19.9217009
  84.6181207  27.6677778  19.9099841  87.0278254  37.1737666  22.6422546
  86.3539952  37.4769362  23.2507504  87.4144076  37.9766746  22.2928003
  86.2436710  24.6702797  32.1320215  85.3259272  24.8917744  31.9741903
  86.6596854  24.7449107  31.2731923  87.0271758  26.0694212  27.2622896
  87.7743577  26.5815610  26.9530018  87.2963348  25.7478265  28.1227289
  85.2998408  28.5652753  24.2449850  84.3909628  28.2811786  24.3422320
  85.3293492  28.9851832  23.3853157  90.5317676  32.1759343  28.0141017
  90.0780003  31.3350253  28.0706208  89.9011642  32.8120741  28.3515798
  89.4750595  23.1051329  29.2441685  88.7373352  22.5928715  29.5751927
  89.7277369  22.6651710  28.4324962  88.9750615  34.0135839  28.9490836
  89.2673589  34.5740896  28.2303201  89.4849235  34.3064400  29.7043995
  89.5762223  15.8827581  29.8383454  89.8821099  15.0224944  29.5509369
  90.3014827  16.4745201  29.6382448  75.8686579  26.2858267  28.2265052
  75.6710978  25.6927628  27.5016119  75.3133243  25.9810477  28.9440991
  83.8483302  26.1781374  30.3459645  83.9031912  25.2255210  30.2702122
  83.0374504  26.3340813  30.8300944  84.9974496  30.1061497  21.5837928
  84.5593926  29.3897356  21.1243566  85.7384937  30.3337612  21.0223020
  81.7875662  24.7958434  28.1050024  80.9743528  25.0952604  28.5115216
  82.2834656  24.4014122  28.8224506  83.9384240  34.7916190  30.0384289
  83.8960419  35.0177037  29.1092821  84.8546939  34.5579565  30.1870090
  87.3849874  25.2600258  36.9364918  87.7399262  25.4871731  37.7959384
  88.0322005  25.5918635  36.3142173  93.1147611  28.3818694  27.6414247
  92.9765509  28.5720290  26.7135436  92.7583830  29.1438077  28.0982298
  81.2789737  22.3676789  33.7211259  81.9189116  22.2265548  33.0234222
  80.4467268  22.0811302  33.3449861  93.1416990  30.4495221  32.6525519
  93.5753497  30.3570510  33.5008573  93.8548571  30.4252721  32.0145535
  82.0550041  31.6679219  29.8346252  82.8490639  31.1729540  29.6328826
  81.3441733  31.1397083  29.4713957  86.8744885  34.0497315  34.1858619
  86.9281908  34.6188251  34.9536335  86.0059667  34.2199200  33.8212656
  78.3632804  25.8122301  25.9106004  77.4330392  25.7506757  26.1275966
  78.4590276  25.2898254  25.1142645  78.2818353  22.3377114  28.4984246
  78.5425171  23.2522447  28.3893406  79.1035526  21.8701557  28.6480859
  79.7543279  23.7514871  35.6683070  80.4266332  23.5432233  35.0195719
  78.9273065  23.5536957  35.2288303  94.0032540  30.4918922  35.1858404
  94.1968430  31.3964732  35.4317679  93.9033158  30.0326341  36.0196989
  85.6568851  20.3776812  37.6848731  85.0096766  21.0766762  37.5913208
  86.4269866  20.8112956  38.0524979  89.0647649  30.6425664  40.7599285
  88.9133155  30.4136216  39.8429368  89.0552328  31.5996266  40.7730630
  85.8332985  28.2157577  35.7445551  86.7625045  28.3668737  35.5714518
  85.4124015  28.3041598  34.8894198  84.6321317  32.2408241  33.5144089
  84.4932403  31.8727026  34.3870027  83.8435913  32.7555881  33.3428046
  85.2269469  37.3417338  24.8569625  85.4021225  36.8705381  25.6715248
  84.5402257  37.9683104  25.0850886  86.1826532  31.6189844  30.9032926
  85.8476365  31.5790614  31.7990576  85.6830478  30.9534560  30.4303337
  80.1570776  27.0257474  36.4285508  80.0190574  26.2937713  37.0297047
  81.0675699  26.9366374  36.1469695  89.1185724  28.9645879  21.1769986
  88.5014894  28.2392707  21.0803039  88.6502212  29.7255239  20.8337060
  82.7853077  26.7377434  35.9169187  83.4952695  26.0970626  35.8755806
  82.7422385  26.9890328  36.8395368  90.7739855  33.6744787  38.8375766
  90.7152401  32.9904007  38.1706349  91.1759374  34.4163777  38.3856392
  81.4982011  23.7242651  37.7364827  80.9619368  23.2733390  38.3886423
  80.9098719  23.8588560  36.9935291  79.7930554  40.4906701  31.6309485
  80.0327152  41.1225225  32.3088504  78.9499751  40.1394741  31.9174845
  80.9084270  23.1831303  20.2991290  80.0313736  23.0620104  19.9353537
  81.3842023  22.3917381  20.0470179  90.7757263  31.6384371  37.0689746
  89.8884041  31.3010293  37.1916145  91.3455814  30.9067402  37.3058511
  72.4286410  27.9708463  30.3932797  73.1157450  27.6570193  29.8053813
  72.2734538  28.8749827  30.1200049  77.2321132  22.8598659  34.8217821
  77.1479321  22.2524329  34.0868231  76.4103838  23.3507677  34.8227318
  84.3058416  36.2985823  34.0350989  84.2328587  37.1040795  34.5470294
  83.8635809  36.4977789  33.2099011  84.0948196  35.5357593  27.5453811
  83.3115718  36.0779273  27.6392035  84.7940941  36.0531573  27.9448052
  87.4044846  21.3452223  30.1888016  87.9013545  20.5922185  29.8689086
  86.6331827  21.3816539  29.6231226  95.2574603  27.0492588  31.8306308
  95.2464479  27.9317304  31.4600241  94.3891983  26.6964139  31.6360845
  86.7657100  36.1972657  36.1909148  87.4785072  36.8320122  36.1185049
  86.2747128  36.2936523  35.3749150  88.4874626  30.1023910  27.7626440
  87.5530905  30.2225372  27.5931144  88.6651295  29.1996377  27.4986449
  83.9879814  23.4869606  29.9159701  83.6177602  22.9340646  30.6040606
  84.4838907  22.8827739  29.3634701  91.8747178  25.9441229  28.2976474
  92.3407630  26.7769221  28.2236776  92.3254678  25.4786211  29.0021732
  81.8169013  33.9467101  37.0114719  82.5178473  34.5803584  37.1644113
  81.3464128  34.2881832  36.2510358  89.9423409  32.2885050  25.2962626
  90.2183253  32.1741645  26.2056500  89.0727908  31.8902535  25.2574799
  89.8463841  18.3121816  32.3367375  88.9326920  18.5426043  32.5049582
  90.2756942  18.3960260  33.1881407  89.6170299  26.5011708  34.8367269
  88.9641749  26.7487616  34.1819722  89.9950679  25.6875846  34.5029746
  86.5777473  36.5371401  28.9395439  86.7599867  35.7193057  29.4023192
  87.4010459  36.7539094  28.5020329  86.9119638  35.4639586  26.2010488
  87.4407405  34.9532041  25.5880650  87.1747858  35.1482117  27.0656021
  85.6657872  27.2431519  41.3233306  84.9898509  27.1425648  41.9935681
  86.4885506  27.0870733  41.7869303  77.4136731  33.4803456  33.9445821
  77.9990168  32.7347144  34.0773726  77.2161570  33.7907412  34.8282485
  80.2675386  36.5154703  28.9608264  79.5985762  37.0000831  28.4772304
  80.1288256  36.7623924  29.8751642  72.0054386  26.0509056  32.6650265
  72.0438485  25.5172647  33.4587383  71.4994679  25.5244261  32.0461242
  84.4080655  38.5498447  35.5590922  84.9598963  38.7130068  36.3240007
  84.7486848  39.1402884  34.8870947  79.3845148  20.8973596  36.1612807
  79.4486475  21.7588427  35.7490205  79.3212268  20.2847598  35.4285165
  78.8597421  22.9696729  39.8085841  79.4869459  22.5873806  40.4223366
  78.0025340  22.7510931  40.1741534  89.2591529  33.3759704  41.4139577
  89.8031433  33.9889662  40.9194531  88.6778374  33.9339283  41.9306590
  75.6362963  24.7773158  25.7404196  75.9316405  23.8683836  25.6871250
  74.7350999  24.7560897  25.4185198  87.5449042  36.4980422  32.5454604
  87.4200182  35.6970162  32.0365550  88.2028133  36.9926615  32.0568574
  79.1657210  22.8529155  31.7231745  78.4443796  23.4665122  31.5839218
  79.9550466  23.3886919  31.6448391  89.6083951  34.2989442  34.1734154
  88.6614286  34.1794793  34.1012481  89.9566724  33.4111940  34.2560416
  81.9683524  20.1883581  37.9972396  82.4917926  20.4345878  38.7598706
  81.7495857  21.0203616  37.5775534  77.3650805  22.4587256  25.8643521
  77.0363511  21.5784635  25.6818627  77.7190176  22.4034924  26.7519910
  86.6130384  34.0942158  30.3738507  86.4655346  33.1658866  30.5546077
  87.4383877  34.1162249  29.8895582  80.4792628  22.7460226  26.2318999
  80.8188701  23.2746147  25.5097607  80.9264749  23.0840632  27.0077565
  90.2164506  34.9170717  31.4603379  91.1411053  34.7113578  31.3227831
  90.0479809  34.6687118  32.3692721  83.1736069  21.1297276  35.6822067
  82.8332889  20.3305089  36.0842747  82.4675075  21.4298987  35.1098900
  83.8252541  18.2146589  34.1349390  84.6478610  17.7407067  34.0128280
  84.0690604  18.9937072  34.6348076  82.4660775  21.2434847  24.4312292
  83.1869138  21.6216100  23.9276008  81.8426079  21.9623724  24.5347270
  86.6091898  21.9479996  25.3670624  86.8255513  22.8304634  25.0659452
  86.1285965  21.5566209  24.6376266  81.3491120  24.9065709  31.9441369
  81.2035700  25.2206012  32.8365650  80.8716323  25.5250610  31.3912267
  83.2087502  21.8968257  31.9922258  83.1949071  21.0009351  31.6554556
  83.9259931  21.9038921  32.6260544  85.0613633  22.3305597  34.0375386
  84.8031411  23.2522668  34.0359716  84.5298674  21.9336032  34.7275850
  90.0059822  35.4356385  26.8165471  90.1796699  34.8702807  26.0639323
  90.4988713  36.2357279  26.6344961  75.8236782  27.4471054  34.8829030
  75.2790250  28.2230862  35.0149304  76.7016132  27.7941858  34.7248151
  82.6124398  20.7782638  27.2609828  82.7340310  19.8499284  27.4600716
  82.3226441  20.7921324  26.3488144  85.4815589  18.4637548  30.3976548
  85.5037286  18.5276881  29.4428528  85.8983648  17.6242057  30.5917054
  95.8599213  28.1992808  28.4355771  96.3030359  27.4500133  28.0374894
  94.9825723  28.1902944  28.0529503  90.9934994  34.7523149  23.9162369
  91.6885899  35.3729842  24.1349684  91.3358145  33.9018500  24.1914747
  76.6102804  26.5740950  37.7759187  75.8684540  26.7223585  38.3623817
  76.2895548  26.8349216  36.9125936  92.8926418  32.2022855  25.4449700
  93.4177742  32.5410127  24.7199020  92.8048770  31.2669870  25.2612835
  84.5546466  36.1156928  37.5739577  84.8633593  35.8706075  38.4462276
  85.3521948  36.3203567  37.0858447  84.5767078  38.2694838  29.8044953
  84.1372069  37.7771217  30.4977810  85.3275195  37.7267805  29.5637028
  77.0559417  34.4606379  29.8069581  77.8817437  34.1610151  29.4268225
  76.7053469  33.6914001  30.2559370  82.0240950  33.8132847  31.8767255
  81.4020960  33.1503552  31.5769483  82.6945817  33.8393979  31.1940903
  75.2568022  32.3792705  30.7658515  74.4199931  31.9514879  30.5842516
  75.2291668  32.5725148  31.7029306  82.0965478  22.2914635  41.4699761
  82.1453633  23.1676758  41.0877530  82.6387992  21.7492028  40.8971404
  92.5820324  32.8355758  40.7500898  91.7915867  32.8179897  40.2105397
  92.3453678  33.3744052  41.5049934  92.7018199  29.6848225  38.0633626
  92.7516204  29.5198232  39.0049149  92.5932122  28.8175484  37.6731507
  81.5854457  32.3636770  25.3525715  81.7342578  33.0472235  24.6992388
  82.3920901  32.3441860  25.8675171  89.9921961  25.6679153  39.3792933
  90.8931824  25.5285617  39.0876931  90.0669936  25.8333607  40.3191111
  84.3264766  23.0446007  38.2246119  83.4568076  23.3379573  37.9528708
  84.5624247  23.6286452  38.9453383  94.2036395  32.1045166  38.3075648
  93.9121204  32.4675147  39.1439109  93.5908527  31.3912174  38.1288980
  95.4032078  29.6698046  30.8278218  96.2378969  30.1087850  30.9915779
  95.5391207  29.1936699  30.0086464  92.4523584  27.2277781  36.7755706
  92.9277705  27.4205427  35.9674557  91.5289149  27.2836967  36.5299090
  79.3407090  28.3901948  26.3586784  79.0953132  27.4864278  26.5566994
  79.5103005  28.3919098  25.4166262  87.0303800  19.2625624  35.7411540
  87.5485744  19.9986651  35.4158028  86.6758933  19.5689618  36.5758299
  78.6102738  24.1230305  23.8572946  77.9171983  24.1974660  23.2012982
  78.3654490  23.3590649  24.3794463  87.2816394  15.6825907  31.2612436
  87.5618148  15.0149096  31.8872863  88.0667001  15.8755002  30.7487100
  85.0849863  34.8584901  22.8237463  84.5123830  35.4775088  22.3707935
  85.6582657  35.4084262  23.3577385  91.1525253  24.1043541  35.0084012
  92.1042676  24.2041638  35.0296236  90.9828703  23.3121809  35.5182096
  89.1739632  21.1899124  35.1943413  88.5789564  21.4704137  34.4989901
  88.8889329  21.6793025  35.9660154  88.3047123  35.1422051  23.9546045
  89.2377796  35.0767612  24.1578921  88.2170335  35.9778318  23.4960578
  90.9335139  34.4587921  20.9149993  90.8548771  34.1247785  21.8085751
  91.7544806  34.9509689  20.9141465  93.6313331  27.3249660  34.1226311
  93.5989651  26.3865661  34.3085995  94.2413954  27.4033697  33.3892136
  85.4696661  26.1945713  20.1653515  86.4155766  26.0651922  20.2341933
  85.0910906  25.4560375  20.6422943  93.7807819  24.1160704  34.1684594
  93.2646868  23.3319161  33.9814523  94.6647768  23.7879421  34.3331114
  91.4418546  17.8601719  30.1280407  91.2443367  17.5516808  31.0123739
  92.0518251  18.5863358  30.2578337  99.4489880  28.3865667  33.2632348
 100.1793269  28.1250955  33.8240051  98.8396826  27.6494389  33.3034416
  97.5305177  26.5273530  33.8606799  96.8038341  26.3929495  33.2523291
  97.1152464  26.8350359  34.6663517  85.3535354  30.2463460  41.6254172
  86.2738363  30.4242059  41.8194219  85.3184937  29.3019505  41.4733872
  83.6539579  24.1195690  20.1008400  82.7471034  23.8228803  20.1771114
  83.9315560  23.8225508  19.2342687  74.5717519  25.4402053  30.5507447
  74.2520303  24.5867361  30.2581821  74.0250947  25.6550631  31.3065414
  78.3497426  28.1564494  34.2676953  78.5683436  29.0881602  34.2864987
  78.7623200  27.7972469  35.0531757  85.2701644  18.6632580  26.2552642
  84.4602373  18.3179665  26.6307888  85.9586061  18.3540123  26.8440253
  87.1992193  17.7410626  27.8776938  87.7523231  18.1606080  28.5366962
  87.4362279  16.8146374  27.9199894  83.2225292  23.7297700  43.6579702
  83.1222019  24.6792057  43.5891793  83.0046834  23.4015939  42.7855772
  82.4238363  20.9782625  20.2420380  83.2857527  21.3037523  20.5016197
  82.6088707  20.1914121  19.7293445  74.4405779  29.0604965  32.5200568
  73.7469250  28.6458918  32.0070523  75.1878770  29.1025501  31.9233987
  90.5771000  19.8511152  27.3855603  89.9969669  20.5095956  27.0033655
  90.3106932  19.0288496  26.9743020  89.0274566  19.2516209  29.5876923
  89.5274344  19.3632744  28.7791242  89.6710174  18.9477262  30.2277731
  83.0856562  27.1594839  42.4744764  82.6023644  27.9595199  42.6808653
  83.1717501  27.1702784  41.5212208  76.3542521  28.9923219  30.3966583
  76.3313210  29.0910906  29.4448466  76.6643158  29.8388369  30.7183749
  79.0129899  31.0499374  34.5113198  79.9673153  31.0183316  34.4443129
  78.8142423  30.5889997  35.3263424  79.6029281  29.6200490  37.0783995
  80.4222170  30.1144568  37.1018833  79.8766089  28.7032458  37.0501563
  89.3595878  22.0111242  26.4411951  88.4721733  22.2960893  26.2232146
  89.7749867  21.8505005  25.5939228  92.7110414  22.0357763  30.1566290
  93.4870804  22.5254215  30.4290907  91.9858548  22.4615817  30.6138160
  95.1482972  22.7485382  31.2140231  95.7427463  22.5081118  30.5033539
  95.2209556  22.0292513  31.8413767  77.3680128  36.5918993  31.5283396
  77.2334596  35.8319394  30.9621394  76.9512190  37.3159893  31.0612185
  88.5039091  31.7755917  20.5359971  89.2074941  31.9805919  21.1517627
  87.7801740  32.3432678  20.8009054  89.3336901  27.5265778  26.6562241
  89.2772103  27.9834329  25.8169874  89.8865244  26.7656462  26.4785084
  93.1441707  23.3155510  27.4812361  92.8878642  22.9152145  28.3120568
  92.5194575  24.0299304  27.3562500  97.4554045  26.0551583  29.9883652
  96.8953603  26.1244772  30.7615214  96.8497549  25.8792568  29.2683148
  80.5249254  37.4888310  31.7401838  80.4081638  38.4333743  31.6380529
  79.7041700  37.1861872  32.1287637  90.4125789  32.2138446  22.5858431
  91.2471392  31.7819644  22.4035906  90.2510131  32.0420459  23.5135325
  90.0671681  28.7170559  23.9514770  90.0120484  28.5514831  23.0103214
  89.4417736  29.4246592  24.1076960  74.8564196  23.9538623  37.7776192
  75.5023059  23.4437577  38.2663418  74.6481347  24.6907305  38.3519618
  87.3817588  31.0219471  43.2768333  88.2508748  31.1960123  42.9154968
  86.9024339  31.8413888  43.1544062  83.3767806  18.2178668  23.5300089
  83.3646476  19.1620508  23.6868360  84.2691228  18.0348813  23.2359550
  81.5503768  38.1416572  34.9557767  82.4531015  38.1740182  35.2724262
  81.3241138  37.2117023  34.9704103  83.3057370  36.8947558  31.6167845
  82.3553001  36.8949420  31.5032218  83.6089856  36.1480293  31.1003880
  87.1919926  14.8121445  27.7846025  86.4252321  14.2579931  27.9302708
  87.6030631  14.8843313  28.6460177  79.1961687  21.1006241  41.8751207
  80.0593148  20.7443045  42.0854531  78.6227097  20.7620135  42.5626611
  99.0410064  42.7308097  32.6813608  99.6788474  42.6114844  31.9776948
  98.9230907  43.6788941  32.7401560  95.8499770  42.6835525  32.6175132
  95.5118281  42.5676590  31.7295667  96.7189538  42.2826690  32.5976139
  91.7086586  44.5371001  28.6072023  91.1451451  44.4460938  27.8388311
  91.5938981  43.7170906  29.0874516  96.3319553  43.8370377  38.5761338
  96.3208194  43.4423175  37.7041842  96.4940192  43.1036449  39.1695109
  89.2551018  46.0322193  31.4456244  90.0472309  45.6913018  31.0302543
  89.4947668  46.1417168  32.3658397  97.2886144  48.2041969  23.9186488
  96.6374124  48.7896050  23.5320502  98.0830507  48.7348164  23.9781526
  91.2141771  45.2931106  24.3173623  91.9872647  44.7460093  24.1786498
  91.5667170  46.1575356  24.5288084  93.0526814  46.6207489  37.5240522
  92.7616680  47.5253119  37.4087188  93.6883798  46.6624016  38.2384591
  93.9783021  43.9984337  34.1141882  94.5746593  43.7740359  33.3998845
  94.0357992  43.2569083  34.7167329  93.5508049  41.4523772  21.9492073
  93.8033570  40.9305294  21.1875536  92.6132608  41.2889918  22.0518756
  98.5951332  40.4559551  29.7566816  99.3814421  40.0378974  29.4057233
  98.8590036  41.3605643  29.9248464  98.7661409  45.8932401  24.4555473
  98.1307242  45.9667028  25.1676377  98.4358816  46.4826000  23.7774552
 103.9959759  40.3934784  30.6599794 104.7284931  39.8234001  30.8937624
 103.2399115  40.0056384  31.1006300  93.2704338  43.3551878  24.1516448
  93.1540596  42.6796782  24.8197532  93.3806598  42.8684252  23.3348601
  95.6135879  42.8162025  27.8563137  95.2494086  42.2892646  28.5676058
  96.4702995  42.4260494  27.6829622 101.5185180  34.1056358  35.1194403
 101.1868504  34.9751769  34.8955618 100.9230793  33.7892642  35.7988433
  95.2541366  37.8451925  22.8524485  95.4215768  38.7132162  23.2194956
  95.0638535  38.0079207  21.9285775  98.0116699  46.3068904  34.5190316
  97.7117422  47.2093943  34.4106123  97.6667759  46.0401087  35.3711469
  91.4629181  42.7582701  30.5527020  90.5379677  42.6258915  30.7604712
  91.7113594  43.5376920  31.0496962 101.4113843  38.8251444  32.1987753
 100.5030720  38.7566853  31.9046514 101.3601439  39.3023389  33.0269578
  95.2330587  40.3009583  23.8371152  95.1130212  40.7466633  24.6756632
  94.5383175  40.6494900  23.2784690  88.8237992  42.4015974  31.3870809
  88.9530373  42.6550453  32.3010221  88.1435443  42.9943682  31.0675464
  92.9937479  53.0713224  27.4861283  92.9161509  54.0221049  27.5649764
  92.3899122  52.7259097  28.1436210  95.4854709  40.2441090  40.1422650
  94.7088043  40.8035010  40.1325515  96.1245272  40.7297873  40.6637520
 103.2775489  37.0267883  33.9765627 102.6349870  37.3200416  33.3305421
 102.7730418  36.9120803  34.7818824 100.9315653  40.7731056  24.6651486
 101.8433509  41.0058443  24.4899184 100.4225300  41.3568100  24.1026565
  93.7401081  43.0526543  39.7040617  94.4815765  43.5911587  39.4275441
  93.0338066  43.6792832  39.8612169  99.2156421  45.1955684  38.3012779
  99.6239777  44.7538094  37.5567411  98.4933682  44.6208311  38.5546972
  95.5687491  40.1328290  35.6746336  96.4148686  40.5567704  35.8180985
  95.5086128  39.4761915  36.3684899  99.5385235  45.7556874  32.0565068
  98.9094098  45.9202588  31.3541135  99.1510897  46.1698484  32.8276032
 103.4174467  46.6911312  29.4109431 102.7325505  47.0710213  28.8606465
 103.5018316  47.3006639  30.1441379  98.7186936  37.7932659  37.3327509
  98.4747868  38.5474719  36.7961785  98.9946867  38.1718006  38.1674756
 100.6725399  44.3371271  36.0104775 100.8842294  44.9803031  35.3339156
 100.6255147  43.5033588  35.5426705  98.2751628  36.9489092  32.9141347
  97.4136107  37.2470345  33.2058085  98.3014062  37.1659491  31.9822380
  95.0913197  45.4931282  29.3215153  95.5551543  45.7718985  28.5319775
  94.8269995  44.5914727  29.1388243  91.9837278  45.0402764  32.2594916
  92.5538635  45.4690032  31.6212400  92.5745390  44.7585349  32.9579102
  94.0282083  41.6154435  26.1304718  94.7306127  42.0675478  26.5978644
  93.6962712  40.9738254  26.7584611  92.4762445  40.2066191  40.5055927
  91.8461105  40.8882472  40.7391324  92.3698533  40.0949273  39.5609065
  87.7707417  39.8737987  31.4321851  86.9806471  40.1295516  30.9561962
  88.2618665  40.6886325  31.5373892 101.7871227  47.2143227  34.1827132
 102.6088670  46.8123414  33.9009814 101.7833630  47.1111461  35.1343248
  89.7222163  40.2382567  28.3905328  88.9253326  40.3501261  28.9088824
  89.4947755  40.5769219  27.5246219  95.5527830  46.7627270  36.3387843
  95.6172263  47.2247677  37.1746015  94.8438754  46.1324635  36.4670153
  86.0545120  40.1268478  33.8636842  86.3053159  41.0115488  34.1294418
  86.5904669  39.9473079  33.0911934 109.8777220  43.5581975  30.5312104
 109.1240928  42.9889373  30.3756108 110.0124761  43.5244640  31.4782738
  95.2675848  48.4295377  26.2066823  95.1321523  49.2746913  26.6351671
  95.8085660  48.6314655  25.4432757  91.7543187  34.5086957  42.8681178
  91.3610133  33.9553156  43.5428823  92.5709328  34.8197536  43.2587696
  88.7205245  45.9470815  26.7794748  89.2329766  46.7414066  26.9300313
  89.3727958  45.2497106  26.7128350  90.5300130  49.0636572  28.8617501
  90.7066758  49.9854536  28.6738485  91.3256963  48.7494991  29.2911881
  94.6711148  35.9244836  40.4601435  95.4120862  36.5251989  40.3805897
  94.9029071  35.1822474  39.9019477  89.8152486  41.1101204  38.7379665
  89.7006002  40.2086461  39.0386763  88.9597004  41.3564900  38.3864481
  96.8944324  49.0518944  40.3367165  96.4508178  48.2655322  40.0188070
  97.5561538  49.2398094  39.6711056  91.6531445  50.5814745  34.8627844
  92.2038871  50.4531809  34.0904838  90.8142921  50.8809634  34.5122736
  98.9925562  49.3321744  38.3648566  98.9744038  50.1530625  37.8728836
  99.9145482  49.2075819  38.5898708  95.4498616  46.8465873  39.2072075
  95.9826953  46.0854161  38.9771383  94.9212698  46.5539525  39.9496229
  98.6168311  31.9525939  34.7365717  98.2732581  32.8427581  34.6604827
  98.9847274  31.7627597  33.8735302  86.6854162  44.2759470  27.5554319
  87.5229384  44.6856478  27.3388026  86.8632430  43.3358912  27.5254513
  98.5818594  41.9434550  23.2438152  98.0665218  42.7139155  23.4826539
  98.3095903  41.2699686  23.8671213  96.1665705  36.7884251  28.3023390
  95.3107301  36.3991101  28.1229029  96.5792657  36.8676212  27.4423176
  97.6964852  34.3230594  32.7014950  97.1929647  34.2860730  31.8882755
  97.9895459  35.2323337  32.7611606  93.9407738  34.4069324  31.7081131
  94.8060734  34.2112133  31.3487021  94.0085247  34.1779676  32.6350488
 103.5552868  44.6966905  25.1791325 102.7782311  44.3578064  24.7346487
 104.2344349  44.7019528  24.5046290  98.3704897  39.8161642  25.0697933
  98.0655033  40.1307792  25.9208076  99.3235339  39.8943062  25.1125266
  96.8151329  45.9751866  26.7190887  96.2872691  45.2404625  26.4064124
  96.3138832  46.7526542  26.4730855 101.7944175  44.1700886  31.8357933
 101.1367850  44.8600148  31.9238062 102.5984574  44.5597318  32.1791919
  91.5470057  36.6371532  29.0797498  92.1213809  36.4146714  28.3470691
  92.1341039  36.7060227  29.8326100 100.6049634  42.5245259  29.8861875
 101.1181516  43.1575251  30.3883585 101.2550858  41.9246454  29.5205235
  91.8739644  38.6675993  23.0993384  91.0376956  39.0050680  23.4202658
  91.7344413  38.5324973  22.1620521  93.8492724  33.5112781  27.8072568
  93.1957137  33.1961798  27.1829183  93.8073199  32.8888521  28.5332391
  94.9603929  43.7932076  19.7225860  94.0530991  43.5621329  19.9217009
  95.4574961  42.9969695  19.9099841  97.8672008  52.5029583  22.6422546
  97.1933707  52.8061280  23.2507504  98.2537830  53.3058664  22.2928003
  97.0830465  39.9994714  32.1320215  96.1653026  40.2209661  31.9741903
  97.4990608  40.0741025  31.2731923  97.8665513  41.3986130  27.2622896
  98.6137332  41.9107527  26.9530018  98.1357102  41.0770183  28.1227289
  96.1392163  43.8944671  24.2449850  95.2303382  43.6103704  24.3422320
  96.1687247  44.3143749  23.3853157 101.3711430  47.5051260  28.0141017
 100.9173757  46.6642170  28.0706208 100.7405397  48.1412659  28.3515798
 100.3144350  38.4343246  29.2441685  99.5767107  37.9220633  29.5751927
 100.5671123  37.9943628  28.4324962  99.8144369  49.3427757  28.9490836
 100.1067344  49.9032814  28.2303201 100.3242990  49.6356318  29.7043995
 100.4155977  31.2119498  29.8383454 100.7214854  30.3516862  29.5509369
 101.1408582  31.8037119  29.6382448  86.7080333  41.6150185  28.2265052
  86.5104733  41.0219546  27.5016119  86.1526997  41.3102395  28.9440991
  94.6877057  41.5073291  30.3459645  94.7425667  40.5547128  30.2702122
  93.8768259  41.6632731  30.8300944  95.8368251  45.4353415  21.5837928
  95.3987680  44.7189273  21.1243566  96.5778691  45.6629529  21.0223020
  92.6269417  40.1250351  28.1050024  91.8137282  40.4244522  28.5115216
  93.1228411  39.7306040  28.8224506  94.7777995  50.1208108  30.0384289
  94.7354173  50.3468954  29.1092821  95.6940693  49.8871483  30.1870090
  98.2243628  40.5892176  36.9364918  98.5793016  40.8163649  37.7959384
  98.8715760  40.9210552  36.3142173 103.9541365  43.7110612  27.6414247
 103.8159264  43.9012208  26.7135436 103.5977584  44.4729994  28.0982298
  92.1183491  37.6968707  33.7211259  92.7582871  37.5557466  33.0234222
  91.2861022  37.4103220  33.3449861 103.9810745  45.7787139  32.6525519
 104.4147252  45.6862428  33.5008573 104.6942326  45.7544639  32.0145535
  92.8943795  46.9971137  29.8346252  93.6884394  46.5021457  29.6328826
  92.1835488  46.4689000  29.4713957  97.7138640  49.3789233  34.1858619
  97.7675662  49.9480169  34.9536335  96.8453421  49.5491118  33.8212656
  89.2026559  41.1414219  25.9106004  88.2724147  41.0798674  26.1275966
  89.2984031  40.6190172  25.1142645  89.1212108  37.6669032  28.4984246
  89.3818925  38.5814365  28.3893406  89.9429280  37.1993474  28.6480859
  90.5937033  39.0806789  35.6683070  91.2660087  38.8724151  35.0195719
  89.7666820  38.8828875  35.2288303 104.8426295  45.8210839  35.1858404
 105.0362185  46.7256650  35.4317679 104.7426913  45.3618258  36.0196989
  96.4962605  35.7068730  37.6848731  95.8490520  36.4058679  37.5913208
  97.2663621  36.1404874  38.0524979  99.9041403  45.9717582  40.7599285
  99.7526910  45.7428134  39.8429368  99.8946083  46.9288183  40.7730630
  96.6726740  43.5449495  35.7445551  97.6018800  43.6960654  35.5714518
  96.2517770  43.6333516  34.8894198  95.4715071  47.5700159  33.5144089
  95.3326157  47.2018944  34.3870027  94.6829668  48.0847799  33.3428046
  96.0663223  52.6709256  24.8569625  96.2414979  52.1997299  25.6715248
  95.3796011  53.2975022  25.0850886  97.0220287  46.9481762  30.9032926
  96.6870119  46.9082532  31.7990576  96.5224232  46.2826478  30.4303337
  90.9964530  42.3549392  36.4285508  90.8584328  41.6229631  37.0297047
  91.9069454  42.2658292  36.1469695  99.9579478  44.2937796  21.1769986
  99.3408649  43.5684624  21.0803039  99.4895967  45.0547156  20.8337060
  93.6246831  42.0669351  35.9169187  94.3346450  41.4262543  35.8755806
  93.5816139  42.3182246  36.8395368 101.6133610  49.0036705  38.8375766
 101.5546156  48.3195925  38.1706349 102.0153128  49.7455695  38.3856392
  92.3375765  39.0534569  37.7364827  91.8013122  38.6025308  38.3886423
  91.7492474  39.1880478  36.9935291  90.6324309  55.8198618  31.6309485
  90.8720907  56.4517143  32.3088504  89.7893505  55.4686658  31.9174845
  91.7478024  38.5123220  20.2991290  90.8707490  38.3912021  19.9353537
  92.2235777  37.7209299  20.0470179 101.6151017  46.9676288  37.0689746
 100.7277796  46.6302210  37.1916145 102.1849568  46.2359320  37.3058511
  83.2680164  43.3000380  30.3932797  83.9551204  42.9862110  29.8053813
  83.1128293  44.2041745  30.1200049  88.0714886  38.1890577  34.8217821
  87.9873075  37.5816246  34.0868231  87.2497593  38.6799595  34.8227318
  95.1452170  51.6277741  34.0350989  95.0722342  52.4332712  34.5470294
  94.7029564  51.8269707  33.2099011  94.9341950  50.8649511  27.5453811
  94.1509472  51.4071191  27.6392035  95.6334695  51.3823490  27.9448052
  98.2438600  36.6744140  30.1888016  98.7407300  35.9214103  29.8689086
  97.4725582  36.7108457  29.6231226 106.0968358  42.3784506  31.8306308
 106.0858234  43.2609221  31.4600241 105.2285737  42.0256057  31.6360845
  97.6050854  51.5264575  36.1909148  98.3178826  52.1612040  36.1185049
  97.1140883  51.6228441  35.3749150  99.3268381  45.4315828  27.7626440
  98.3924660  45.5517290  27.5931144  99.5045049  44.5288294  27.4986449
  94.8273569  38.8161523  29.9159701  94.4571357  38.2632564  30.6040606
  95.3232661  38.2119657  29.3634701 102.7140932  41.2733147  28.2976474
 103.1801384  42.1061138  28.2236776 103.1648433  40.8078128  29.0021732
  92.6562768  49.2759018  37.0114719  93.3572227  49.9095501  37.1644113
  92.1857883  49.6173750  36.2510358 100.7817163  47.6176968  25.2962626
 101.0577007  47.5033563  26.2056500  99.9121662  47.2194453  25.2574799
 100.6857595  33.6413734  32.3367375  99.7720675  33.8717961  32.5049582
 101.1150696  33.7252178  33.1881407 100.4564054  41.8303626  34.8367269
  99.8035504  42.0779533  34.1819722 100.8344433  41.0167764  34.5029746
  97.4171227  51.8663319  28.9395439  97.5993622  51.0484975  29.4023192
  98.2404213  52.0831011  28.5020329  97.7513393  50.7931504  26.2010488
  98.2801159  50.2823959  25.5880650  98.0141612  50.4774034  27.0656021
  96.5051627  42.5723437  41.3233306  95.8292264  42.4717566  41.9935681
  97.3279260  42.4162651  41.7869303  88.2530486  48.8095373  33.9445821
  88.8383922  48.0639061  34.0773726  88.0555324  49.1199330  34.8282485
  91.1069141  51.8446621  28.9608264  90.4379516  52.3292748  28.4772304
  90.9682011  52.0915841  29.8751642  82.8448140  41.3800974  32.6650265
  82.8832240  40.8464564  33.4587383  82.3388433  40.8536179  32.0461242
  95.2474409  53.8790364  35.5590922  95.7992717  54.0421986  36.3240007
  95.5880603  54.4694802  34.8870947  90.2238903  36.2265514  36.1612807
  90.2880229  37.0880345  35.7490205  90.1606023  35.6139516  35.4285165
  89.6991175  38.2988647  39.8085841  90.3263214  37.9165724  40.4223366
  88.8419094  38.0802849  40.1741534 100.0985284  48.7051622  41.4139577
 100.6425188  49.3181580  40.9194531  99.5172129  49.2631200  41.9306590
  86.4756718  40.1065076  25.7404196  86.7710159  39.1975754  25.6871250
  85.5744754  40.0852815  25.4185198  98.3842797  51.8272340  32.5454604
  98.2593936  51.0262080  32.0365550  99.0421888  52.3218533  32.0568574
  90.0050965  38.1821072  31.7231745  89.2837551  38.7957040  31.5839218
  90.7944221  38.7178837  31.6448391 100.4477705  49.6281360  34.1734154
  99.5008041  49.5086711  34.1012481 100.7960478  48.7403858  34.2560416
  92.8077278  35.5175499  37.9972396  93.3311680  35.7637795  38.7598706
  92.5889612  36.3495534  37.5775534  88.2044560  37.7879173  25.8643521
  87.8757266  36.9076552  25.6818627  88.5583930  37.7326842  26.7519910
  97.4524138  49.4234076  30.3738507  97.3049101  48.4950784  30.5546077
  98.2777632  49.4454167  29.8895582  91.3186383  38.0752143  26.2318999
  91.6582455  38.6038064  25.5097607  91.7658503  38.4132549  27.0077565
 101.0558260  50.2462635  31.4603379 101.9804808  50.0405496  31.3227831
 100.8873564  49.9979036  32.3692721  94.0129823  36.4589194  35.6822067
  93.6726644  35.6597007  36.0842747  93.3068830  36.7590905  35.1098900
  94.6646295  33.5438506  34.1349390  95.4872365  33.0698985  34.0128280
  94.9084359  34.3228990  34.6348076  93.3054530  36.5726765  24.4312292
  94.0262892  36.9508018  23.9276008  92.6819834  37.2915642  24.5347270
  97.4485653  37.2771914  25.3670624  97.6649267  38.1596552  25.0659452
  96.9679720  36.8858127  24.6376266  92.1884874  40.2357627  31.9441369
  92.0429455  40.5497930  32.8365650  91.7110078  40.8542527  31.3912267
  94.0481257  37.2260175  31.9922258  94.0342826  36.3301268  31.6554556
  94.7653685  37.2330839  32.6260544  95.9007388  37.6597515  34.0375386
  95.6425165  38.5814586  34.0359716  95.3692428  37.2627950  34.7275850
 100.8453576  50.7648302  26.8165471 101.0190454  50.1994725  26.0639323
 101.3382468  51.5649197  26.6344961  86.6630536  42.7762971  34.8829030
  86.1184004  43.5522779  35.0149304  87.5409886  43.1233776  34.7248151
  93.4518153  36.1074555  27.2609828  93.5734064  35.1791201  27.4600716
  93.1620195  36.1213241  26.3488144  96.3209343  33.7929466  30.3976548
  96.3431040  33.8568799  29.4428528  96.7377402  32.9533974  30.5917054
 106.6992968  43.5284725  28.4355771 107.1424114  42.7792050  28.0374894
 105.8219478  43.5194862  28.0529503 101.8328749  50.0815067  23.9162369
 102.5279654  50.7021759  24.1349684 102.1751899  49.2310418  24.1914747
  87.4496558  41.9032868  37.7759187  86.7078294  42.0515503  38.3623817
  87.1289302  42.1641133  36.9125936 103.7320172  47.5314772  25.4449700
 104.2571496  47.8702045  24.7199020 103.6442525  46.5961788  25.2612835
  95.3940221  51.4448846  37.5739577  95.7027347  51.1997993  38.4462276
  96.1915703  51.6495484  37.0858447  95.4160833  53.5986755  29.8044953
  94.9765823  53.1063134  30.4977810  96.1668950  53.0559723  29.5637028
  87.8953172  49.7898296  29.8069581  88.7211192  49.4902068  29.4268225
  87.5447224  49.0205919  30.2559370  92.8634705  49.1424765  31.8767255
  92.2414714  48.4795470  31.5769483  93.5339572  49.1685896  31.1940903
  86.0961777  47.7084623  30.7658515  85.2593685  47.2806797  30.5842516
  86.0685422  47.9017066  31.7029306  92.9359232  37.6206553  41.4699761
  92.9847388  38.4968675  41.0877530  93.4781747  37.0783946  40.8971404
 103.4214078  48.1647676  40.7500898 102.6309622  48.1471815  40.2105397
 103.1847433  48.7035970  41.5049934 103.5411953  45.0140142  38.0633626
 103.5909958  44.8490150  39.0049149 103.4325876  44.1467401  37.6731507
  92.4248212  47.6928688  25.3525715  92.5736332  48.3764152  24.6992388
  93.2314655  47.6733778  25.8675171 100.8315716  40.9971070  39.3792933
 101.7325578  40.8577535  39.0876931 100.9063690  41.1625525  40.3191111
  95.1658521  38.3737925  38.2246119  94.2961830  38.6671491  37.9528708
  95.4018001  38.9578370  38.9453383 105.0430150  47.4337084  38.3075648
 104.7514958  47.7967064  39.1439109 104.4302281  46.7204092  38.1288980
 106.2425832  44.9989964  30.8278218 107.0772724  45.4379768  30.9915779
 106.3784961  44.5228617  30.0086464 103.2917338  42.5569698  36.7755706
 103.7671460  42.7497345  35.9674557 102.3682904  42.6128884  36.5299090
  90.1800845  43.7193866  26.3586784  89.9346887  42.8156196  26.5566994
  90.3496759  43.7211016  25.4166262  97.8697555  34.5917542  35.7411540
  98.3879499  35.3278569  35.4158028  97.5152687  34.8981535  36.5758299
  89.4496492  39.4522223  23.8572946  88.7565737  39.5266578  23.2012982
  89.2048244  38.6882567  24.3794463  98.1210149  31.0117824  31.2612436
  98.4011903  30.3441014  31.8872863  98.9060756  31.2046920  30.7487100
  95.9243617  50.1876818  22.8237463  95.3517584  50.8067006  22.3707935
  96.4976411  50.7376180  23.3577385 101.9919007  39.4335458  35.0084012
 102.9436430  39.5333556  35.0296236 101.8222458  38.6413727  35.5182096
 100.0133387  36.5191042  35.1943413  99.4183319  36.7996054  34.4989901
  99.7283083  37.0084943  35.9660154  99.1440877  50.4713969  23.9546045
 100.0771550  50.4059530  24.1578921  99.0564090  51.3070235  23.4960578
 101.7728894  49.7879839  20.9149993 101.6942525  49.4539702  21.8085751
 102.5938561  50.2801607  20.9141465 104.4707085  42.6541578  34.1226311
 104.4383405  41.7157579  34.3085995 105.0807709  42.7325615  33.3892136
  96.3090416  41.5237631  20.1653515  97.2549521  41.3943839  20.2341933
  95.9304661  40.7852293  20.6422943 104.6201573  39.4452622  34.1684594
 104.1040622  38.6611078  33.9814523 105.5041522  39.1171338  34.3331114
 102.2812300  33.1893637  30.1280407 102.0837122  32.8808725  31.0123739
 102.8912006  33.9155276  30.2578337 110.2883635  43.7157585  33.2632348
 111.0187023  43.4542873  33.8240051 109.6790580  42.9786307  33.3034416
 108.3698932  41.8565448  33.8606799 107.6432096  41.7221413  33.2523291
 107.9546219  42.1642276  34.6663517  96.1929108  45.5755377  41.6254172
  97.1132118  45.7533976  41.8194219  96.1578691  44.6311423  41.4733872
  94.4933333  39.4487608  20.1008400  93.5864788  39.1520720  20.1771114
  94.7709314  39.1517426  19.2342687  85.4111273  40.7693971  30.5507447
  85.0914058  39.9159279  30.2581821  84.8644702  40.9842549  31.3065414
  89.1891181  43.4856412  34.2676953  89.4077191  44.4173520  34.2864987
  89.6016955  43.1264386  35.0531757  96.1095399  33.9924497  26.2552642
  95.2996127  33.6471582  26.6307888  96.7979816  33.6832041  26.8440253
  98.0385947  33.0702544  27.8776938  98.5916986  33.4897997  28.5366962
  98.2756033  32.1438292  27.9199894  94.0619046  39.0589618  43.6579702
  93.9615773  40.0083975  43.5891793  93.8440588  38.7307857  42.7855772
  93.2632118  36.3074543  20.2420380  94.1251282  36.6329441  20.5016197
  93.4482462  35.5206039  19.7293445  85.2799533  44.3896882  32.5200568
  84.5863005  43.9750835  32.0070523  86.0272524  44.4317419  31.9233987
 101.4164754  35.1803069  27.3855603 100.8363423  35.8387873  27.0033655
 101.1500687  34.3580414  26.9743020  99.8668320  34.5808127  29.5876923
 100.3668099  34.6924661  28.7791242 100.5103928  34.2769180  30.2277731
  93.9250316  42.4886757  42.4744764  93.4417398  43.2887117  42.6808653
  94.0111255  42.4994701  41.5212208  87.1936276  44.3215136  30.3966583
  87.1706964  44.4202823  29.4448466  87.5036912  45.1680287  30.7183749
  89.8523654  46.3791291  34.5113198  90.8066907  46.3475234  34.4443129
  89.6536177  45.9181915  35.3263424  90.4423036  44.9492407  37.0783995
  91.2615925  45.4436486  37.1018833  90.7159844  44.0324375  37.0501563
 100.1989632  37.3403160  26.4411951  99.3115487  37.6252810  26.2232146
 100.6143621  37.1796923  25.5939228 103.5504168  37.3649681  30.1566290
 104.3264558  37.8546133  30.4290907 102.8252302  37.7907735  30.6138160
 105.9876727  38.0777300  31.2140231 106.5821218  37.8373036  30.5033539
 106.0603311  37.3584430  31.8413767  88.2073883  51.9210911  31.5283396
  88.0728351  51.1611312  30.9621394  87.7905945  52.6451811  31.0612185
  99.3432846  47.1047834  20.5359971 100.0468696  47.3097837  21.1517627
  98.6195494  47.6724596  20.8009054 100.1730656  42.8557696  26.6562241
 100.1165857  43.3126247  25.8169874 100.7258998  42.0948380  26.4785084
 103.9835462  38.6447427  27.4812361 103.7272396  38.2444063  28.3120568
 103.3588330  39.3591221  27.3562500 108.2947800  41.3843501  29.9883652
 107.7347358  41.4536690  30.7615214 107.6891303  41.2084485  29.2683148
  91.3643008  52.8180228  31.7401838  91.2475393  53.7625660  31.6380529
  90.5435455  52.5153789  32.1287637 101.2519543  47.5430363  22.5858431
 102.0865147  47.1111562  22.4035906 101.0903886  47.3712377  23.5135325
 100.9065435  44.0462477  23.9514770 100.8514239  43.8806748  23.0103214
 100.2811490  44.7538510  24.1076960  85.6957950  39.2830541  37.7776192
  86.3416814  38.7729495  38.2663418  85.4875101  40.0199223  38.3519618
  98.2211342  46.3511389  43.2768333  99.0902502  46.5252041  42.9154968
  97.7418094  47.1705805  43.1544062  94.2161561  33.5470586  23.5300089
  94.2040230  34.4912426  23.6868360  95.1084983  33.3640731  23.2359550
  92.3897523  53.4708490  34.9557767  93.2924769  53.5032100  35.2724262
  92.1634893  52.5408941  34.9704103  94.1451125  52.2239476  31.6167845
  93.1946756  52.2241338  31.5032218  94.4483611  51.4772211  31.1003880
  98.0313680  30.1413362  27.7846025  97.2646076  29.5871849  27.9302708
  98.4424385  30.2135231  28.6460177  90.0355441  36.4298158  41.8751207
  90.8986903  36.0734963  42.0854531  89.4620852  36.0912053  42.5626611
 109.8803818  58.0600015  32.6813608 110.5182228  57.9406762  31.9776948
 109.7624661  59.0080859  32.7401560 106.6893524  58.0127443  32.6175132
 106.3512036  57.8968507  31.7295667 107.5583293  57.6118608  32.5976139
 102.5480340  59.8662919  28.6072023 101.9845205  59.7752856  27.8388311
 102.4332735  59.0462824  29.0874516 107.1713307  59.1662294  38.5761338
 107.1601948  58.7715093  37.7041842 107.3333947  58.4328367  39.1695109
 100.0944772  61.3614111  31.4456244 100.8866064  61.0204935  31.0302543
 100.3341422  61.4709086  32.3658397 108.1279899  63.5333887  23.9186488
 107.4767879  64.1187967  23.5320502 108.9224262  64.0640082  23.9781526
 102.0535526  60.6223024  24.3173623 102.8266402  60.0752011  24.1786498
 102.4060925  61.4867273  24.5288084 103.8920569  61.9499406  37.5240522
 103.6010434  62.8545037  37.4087188 104.5277553  61.9915934  38.2384591
 104.8176775  59.3276255  34.1141882 105.4140348  59.1032277  33.3998845
 104.8751747  58.5861000  34.7167329 104.3901804  56.7815690  21.9492073
 104.6427324  56.2597211  21.1875536 103.4526363  56.6181835  22.0518756
 109.4345087  55.7851468  29.7566816 110.2208176  55.3670892  29.4057233
 109.6983791  56.6897561  29.9248464 109.6055164  61.2224319  24.4555473
 108.9700997  61.2958945  25.1676377 109.2752570  61.8117918  23.7774552
 114.8353514  55.7226702  30.6599794 115.5678686  55.1525918  30.8937624
 114.0792869  55.3348302  31.1006300 104.1098093  58.6843796  24.1516448
 103.9934351  58.0088699  24.8197532 104.2200352  58.1976170  23.3348601
 106.4529633  58.1453943  27.8563137 106.0887841  57.6184564  28.5676058
 107.3096749  57.7552412  27.6829622 112.3578934  49.4348276  35.1194403
 112.0262259  50.3043687  34.8955618 111.7624547  49.1184560  35.7988433
 106.0935120  53.1743843  22.8524485 106.2609523  54.0424079  23.2194956
 105.9032289  53.3371124  21.9285775 108.8510454  61.6360822  34.5190316
 108.5511177  62.5385861  34.4106123 108.5061513  61.3693005  35.3711469
 102.3022935  58.0874619  30.5527020 101.3773432  57.9550833  30.7604712
 102.5507348  58.8668838  31.0496962 112.2507597  54.1543362  32.1987753
 111.3424475  54.0858770  31.9046514 112.1995193  54.6315307  33.0269578
 106.0724341  55.6301500  23.8371152 105.9523966  56.0758551  24.6756632
 105.3776930  55.9786818  23.2784690  99.6631746  57.7307892  31.3870809
  99.7924127  57.9842371  32.3010221  98.9829197  58.3235600  31.0675464
 103.8331233  68.4005142  27.4861283 103.7555263  69.3512967  27.5649764
 103.2292877  68.0551015  28.1436210 106.3248463  55.5733007  40.1422650
 105.5481797  56.1326928  40.1325515 106.9639026  56.0589790  40.6637520
 114.1169244  52.3559800  33.9765627 113.4743624  52.6492333  33.3305421
 113.6124172  52.2412721  34.7818824 111.7709407  56.1022973  24.6651486
 112.6827264  56.3350360  24.4899184 111.2619055  56.6860018  24.1026565
 104.5794835  58.3818461  39.7040617 105.3209520  58.9203505  39.4275441
 103.8731821  59.0084750  39.8612169 110.0550175  60.5247601  38.3012779
 110.4633531  60.0830012  37.5567411 109.3327437  59.9500229  38.5546972
 106.4081245  55.4620208  35.6746336 107.2542440  55.8859622  35.8180985
 106.3479883  54.8053832  36.3684899 110.3778990  61.0848792  32.0565068
 109.7487852  61.2494506  31.3541135 109.9904652  61.4990401  32.8276032
 114.2568222  62.0203230  29.4109431 113.5719260  62.4002131  28.8606465
 114.3412071  62.6298556  30.1441379 109.5580690  53.1224576  37.3327509
 109.3141622  53.8766637  36.7961785 109.8340621  53.5009924  38.1674756
 111.5119153  59.6663189  36.0104775 111.7236049  60.3094949  35.3339156
 111.4648902  58.8325505  35.5426705 109.1145382  52.2781009  32.9141347
 108.2529861  52.5762263  33.2058085 109.1407817  52.4951408  31.9822380
 105.9306952  60.8223200  29.3215153 106.3945297  61.1010903  28.5319775
 105.6663750  59.9206645  29.1388243 102.8231033  60.3694682  32.2594916
 103.3932390  60.7981950  31.6212400 103.4139145  60.0877266  32.9579102
 104.8675838  56.9446352  26.1304718 105.5699881  57.3967396  26.5978644
 104.5356466  56.3030171  26.7584611 103.3156199  55.5358109  40.5055927
 102.6854860  56.2174390  40.7391324 103.2092287  55.4241191  39.5609065
  98.6101172  55.2029905  31.4321851  97.8200226  55.4587434  30.9561962
  99.1012419  56.0178243  31.5373892 112.6264981  62.5435144  34.1827132
 113.4482425  62.1415331  33.9009814 112.6227384  62.4403378  35.1343248
 100.5615917  55.5674484  28.3905328  99.7647080  55.6793179  28.9088824
 100.3341509  55.9061137  27.5246219 106.3921585  62.0919188  36.3387843
 106.4566017  62.5539595  37.1746015 105.6832509  61.4616552  36.4670153
  96.8938875  55.4560395  33.8636842  97.1446913  56.3407405  34.1294418
  97.4298423  55.2764997  33.0911934 106.1069602  63.7587295  26.2066823
 105.9715277  64.6038831  26.6351671 106.6479415  63.9606573  25.4432757
 102.5936942  49.8378875  42.8681178 102.2003888  49.2845073  43.5428823
 103.4103082  50.1489453  43.2587696  99.5599000  61.2762733  26.7794748
 100.0723520  62.0705983  26.9300313 100.2121713  60.5789023  26.7128350
 101.3693884  64.3928489  28.8617501 101.5460513  65.3146454  28.6738485
 102.1650718  64.0786909  29.2911881 105.5104903  51.2536754  40.4601435
 106.2514616  51.8543907  40.3805897 105.7422826  50.5114392  39.9019477
 100.6546241  56.4393121  38.7379665 100.5399756  55.5378378  39.0386763
  99.7990759  56.6856818  38.3864481 107.7338079  64.3810862  40.3367165
 107.2901933  63.5947240  40.0188070 108.3955292  64.5690012  39.6711056
 102.4925200  65.9106663  34.8627844 103.0432625  65.7823726  34.0904838
 101.6536676  66.2101552  34.5122736 109.8319317  64.6613661  38.3648566
 109.8137792  65.4822542  37.8728836 110.7539237  64.5367737  38.5898708
 106.2892371  62.1757791  39.2072075 106.8220708  61.4146079  38.9771383
 105.7606452  61.8831443  39.9496229 109.4562066  47.2817857  34.7365717
 109.1126335  48.1719499  34.6604827 109.8241028  47.0919515  33.8735302
  97.5247916  59.6051387  27.5554319  98.3623138  60.0148396  27.3388026
  97.7026184  58.6650830  27.5254513 109.4212349  57.2726468  23.2438152
 108.9058972  58.0431073  23.4826539 109.1489657  56.5991604  23.8671213
 107.0059460  52.1176169  28.3023390 106.1501056  51.7283019  28.1229029
 107.4186411  52.1968130  27.4423176 108.5358606  49.6522512  32.7014950
 108.0323402  49.6152647  31.8882755 108.8289213  50.5615255  32.7611606
 104.7801492  49.7361242  31.7081131 105.6454489  49.5404050  31.3487021
 104.8479001  49.5071594  32.6350488 114.3946623  60.0258823  25.1791325
 113.6176066  59.6869982  24.7346487 115.0738104  60.0311446  24.5046290
 109.2098652  55.1453560  25.0697933 108.9048787  55.4599709  25.9208076
 110.1629094  55.2234980  25.1125266 107.6545084  61.3043783  26.7190887
 107.1266445  60.5696543  26.4064124 107.1532586  62.0818460  26.4730855
 112.6337930  59.4992804  31.8357933 111.9761604  60.1892065  31.9238062
 113.4378329  59.8889236  32.1791919 102.3863811  51.9663450  29.0797498
 102.9607563  51.7438631  28.3470691 102.9734794  52.0352144  29.8326100
 111.4443388  57.8537177  29.8861875 111.9575270  58.4867168  30.3883585
 112.0944612  57.2538372  29.5205235 102.7133398  53.9967911  23.0993384
 101.8770711  54.3342597  23.4202658 102.5738168  53.8616891  22.1620521
 104.6886479  48.8404699  27.8072568 104.0350891  48.5253716  27.1829183
 104.6466953  48.2180439  28.5332391 105.7997684  59.1223994  19.7225860
 104.8924746  58.8913247  19.9217009 106.2968716  58.3261613  19.9099841
 108.7065763  67.8321501  22.6422546 108.0327461  68.1353198  23.2507504
 109.0931585  68.6350581  22.2928003 107.9224219  55.3286632  32.1320215
 107.0046781  55.5501579  31.9741903 108.3384363  55.4032943  31.2731923
 108.7059267  56.7278048  27.2622896 109.4531086  57.2399445  26.9530018
 108.9750857  56.4062101  28.1227289 106.9785917  59.2236589  24.2449850
 106.0697137  58.9395621  24.3422320 107.0081001  59.6435667  23.3853157
 112.2105185  62.8343178  28.0141017 111.7567512  61.9934088  28.0706208
 111.5799151  63.4704576  28.3515798 111.1538104  53.7635164  29.2441685
 110.4160861  53.2512550  29.5751927 111.4064878  53.3235546  28.4324962
 110.6538124  64.6719675  28.9490836 110.9461098  65.2324732  28.2303201
 111.1636744  64.9648236  29.7043995 111.2549732  46.5411416  29.8383454
 111.5608608  45.6808780  29.5509369 111.9802336  47.1329036  29.6382448
  97.5474088  56.9442103  28.2265052  97.3498487  56.3511463  27.5016119
  96.9920752  56.6394313  28.9440991 105.5270811  56.8365209  30.3459645
 105.5819421  55.8839046  30.2702122 104.7162013  56.9924648  30.8300944
 106.6762005  60.7645332  21.5837928 106.2381435  60.0481191  21.1243566
 107.4172446  60.9921447  21.0223020 103.4663171  55.4542269  28.1050024
 102.6531037  55.7536439  28.5115216 103.9622165  55.0597958  28.8224506
 105.6171749  65.4500026  30.0384289 105.5747928  65.6760872  29.1092821
 106.5334448  65.2163400  30.1870090 109.0637383  55.9184093  36.9364918
 109.4186771  56.1455566  37.7959384 109.7109514  56.2502470  36.3142173
 114.7935120  59.0402529  27.6414247 114.6553018  59.2304125  26.7135436
 114.4371339  59.8021912  28.0982298 102.9577246  53.0260624  33.7211259
 103.5976625  52.8849384  33.0234222 102.1254777  52.7395138  33.3449861
 114.8204499  61.1079056  32.6525519 115.2541006  61.0154345  33.5008573
 115.5336080  61.0836557  32.0145535 103.7337550  62.3263055  29.8346252
 104.5278148  61.8313375  29.6328826 103.0229242  61.7980918  29.4713957
 108.5532394  64.7081150  34.1858619 108.6069417  65.2772087  34.9536335
 107.6847176  64.8783035  33.8212656 100.0420313  56.4706137  25.9106004
  99.1117901  56.4090592  26.1275966 100.1377785  55.9482089  25.1142645
  99.9605862  52.9960949  28.4984246 100.2212680  53.9106283  28.3893406
 100.7823035  52.5285392  28.6480859 101.4330788  54.4098707  35.6683070
 102.1053841  54.2016069  35.0195719 100.6060574  54.2120793  35.2288303
 115.6820049  61.1502757  35.1858404 115.8755939  62.0548567  35.4317679
 115.5820667  60.6910176  36.0196989 107.3356360  51.0360647  37.6848731
 106.6884275  51.7350597  37.5913208 108.1057375  51.4696791  38.0524979
 110.7435158  61.3009500  40.7599285 110.5920664  61.0720051  39.8429368
 110.7339837  62.2580101  40.7730630 107.5120494  58.8741412  35.7445551
 108.4412554  59.0252572  35.5714518 107.0911524  58.9625433  34.8894198
 106.3108826  62.8992077  33.5144089 106.1719912  62.5310861  34.3870027
 105.5223422  63.4139716  33.3428046 106.9056978  68.0001173  24.8569625
 107.0808734  67.5289216  25.6715248 106.2189766  68.6266939  25.0850886
 107.8614041  62.2773680  30.9032926 107.5263874  62.2374449  31.7990576
 107.3617987  61.6118395  30.4303337 101.8358285  57.6841310  36.4285508
 101.6978083  56.9521548  37.0297047 102.7463208  57.5950210  36.1469695
 110.7973233  59.6229714  21.1769986 110.1802403  58.8976542  21.0803039
 110.3289721  60.3839074  20.8337060 104.4640586  57.3961269  35.9169187
 105.1740204  56.7554461  35.8755806 104.4209894  57.6474164  36.8395368
 112.4527364  64.3328622  38.8375766 112.3939910  63.6487842  38.1706349
 112.8546883  65.0747612  38.3856392 103.1769520  54.3826487  37.7364827
 102.6406877  53.9317225  38.3886423 102.5886228  54.5172396  36.9935291
 101.4718063  71.1490536  31.6309485 101.7114661  71.7809060  32.3088504
 100.6287260  70.7978576  31.9174845 102.5871779  53.8415138  20.2991290
 101.7101245  53.7203939  19.9353537 103.0629532  53.0501216  20.0470179
 112.4544772  62.2968206  37.0689746 111.5671550  61.9594128  37.1916145
 113.0243323  61.5651237  37.3058511  94.1073919  58.6292298  30.3932797
  94.7944959  58.3154028  29.8053813  93.9522047  59.5333663  30.1200049
  98.9108641  53.5182494  34.8217821  98.8266830  52.9108164  34.0868231
  98.0891347  54.0091513  34.8227318 105.9845925  66.9569658  34.0350989
 105.9116096  67.7624630  34.5470294 105.5423318  67.1561624  33.2099011
 105.7735705  66.1941429  27.5453811 104.9903226  66.7363109  27.6392035
 106.4728450  66.7115408  27.9448052 109.0832355  52.0036058  30.1888016
 109.5801054  51.2506020  29.8689086 108.3119336  52.0400375  29.6231226
 108.4444609  66.8556493  36.1909148 109.1572581  67.4903957  36.1185049
 107.9534637  66.9520359  35.3749150 110.1662135  60.7607745  27.7626440
 109.2318414  60.8809208  27.5931144 110.3438804  59.8580212  27.4986449
 105.6667323  54.1453441  29.9159701 105.2965111  53.5924481  30.6040606
 106.1626416  53.5411574  29.3634701 113.5534687  56.6025064  28.2976474
 114.0195139  57.4353056  28.2236776 114.0042187  56.1370046  29.0021732
 103.4956522  64.6050936  37.0114719 104.1965982  65.2387419  37.1644113
 103.0251637  64.9465668  36.2510358 111.6210918  62.9468886  25.2962626
 111.8970762  62.8325480  26.2056500 110.7515417  62.5486371  25.2574799
 111.5251350  48.9705651  32.3367375 110.6114429  49.2009878  32.5049582
 111.9544451  49.0544096  33.1881407 111.2957808  57.1595543  34.8367269
 110.6429258  57.4071451  34.1819722 111.6738188  56.3459682  34.5029746
 108.2564982  67.1955237  28.9395439 108.4387376  66.3776893  29.4023192
 109.0797968  67.4122929  28.5020329 108.5907147  66.1223422  26.2010488
 109.1194914  65.6115876  25.5880650 108.8535367  65.8065952  27.0656021
 107.3445381  57.9015354  41.3233306 106.6686018  57.8009484  41.9935681
 108.1673015  57.7454568  41.7869303  99.0924240  64.1387291  33.9445821
  99.6777677  63.3930979  34.0773726  98.8949079  64.4491248  34.8282485
 101.9462895  67.1738538  28.9608264 101.2773271  67.6584666  28.4772304
 101.8075765  67.4207759  29.8751642  93.6841895  56.7092891  32.6650265
  93.7225994  56.1756482  33.4587383  93.1782188  56.1828097  32.0461242
 106.0868164  69.2082282  35.5590922 106.6386472  69.3713903  36.3240007
 106.4274357  69.7986720  34.8870947 101.0632657  51.5557432  36.1612807
 101.1273984  52.4172263  35.7490205 100.9999777  50.9431433  35.4285165
 100.5384930  53.6280564  39.8085841 101.1656968  53.2457642  40.4223366
  99.6812849  53.4094766  40.1741534 110.9379038  64.0343539  41.4139577
 111.4818942  64.6473498  40.9194531 110.3565883  64.5923118  41.9306590
  97.3150472  55.4356993  25.7404196  97.6103913  54.5267672  25.6871250
  96.4138508  55.4144733  25.4185198 109.2236551  67.1564257  32.5454604
 109.0987691  66.3553997  32.0365550 109.8815642  67.6510451  32.0568574
 100.8444719  53.5112990  31.7231745 100.1231305  54.1248958  31.5839218
 101.6337975  54.0470755  31.6448391 111.2871460  64.9573278  34.1734154
 110.3401795  64.8378629  34.1012481 111.6354233  64.0695776  34.2560416
 103.6471033  50.8467416  37.9972396 104.1705435  51.0929713  38.7598706
 103.4283366  51.6787451  37.5775534  99.0438314  53.1171091  25.8643521
  98.7151020  52.2368470  25.6818627  99.3977685  53.0618760  26.7519910
 108.2917893  64.7525994  30.3738507 108.1442855  63.8242701  30.5546077
 109.1171386  64.7746084  29.8895582 102.1580137  53.4044061  26.2318999
 102.4976210  53.9329982  25.5097607 102.6052258  53.7424467  27.0077565
 111.8952015  65.5754552  31.4603379 112.8198562  65.3697414  31.3227831
 111.7267318  65.3270954  32.3692721 104.8523578  51.7881112  35.6822067
 104.5120398  50.9888925  36.0842747 104.1462584  52.0882822  35.1098900
 105.5040050  48.8730424  34.1349390 106.3266119  48.3990902  34.0128280
 105.7478113  49.6520908  34.6348076 104.1448284  51.9018682  24.4312292
 104.8656647  52.2799935  23.9276008 103.5213588  52.6207559  24.5347270
 108.2879407  52.6063831  25.3670624 108.5043022  53.4888469  25.0659452
 107.8073474  52.2150045  24.6376266 103.0278629  55.5649545  31.9441369
 102.8823209  55.8789848  32.8365650 102.5503832  56.1834445  31.3912267
 104.8875011  52.5552093  31.9922258 104.8736580  51.6593186  31.6554556
 105.6047440  52.5622756  32.6260544 106.7401142  52.9889433  34.0375386
 106.4818920  53.9106503  34.0359716 106.2086183  52.5919867  34.7275850
 111.6847331  66.0940220  26.8165471 111.8584208  65.5286642  26.0639323
 112.1776222  66.8941115  26.6344961  97.5024291  58.1054889  34.8829030
  96.9577759  58.8814697  35.0149304  98.3803641  58.4525694  34.7248151
 104.2911907  51.4366473  27.2609828 104.4127819  50.5083119  27.4600716
 104.0013950  51.4505159  26.3488144 107.1603098  49.1221383  30.3976548
 107.1824795  49.1860716  29.4428528 107.5771157  48.2825892  30.5917054
 112.6722503  65.4106984  23.9162369 113.3673408  66.0313677  24.1349684
 113.0145654  64.5602336  24.1914747  98.2890313  57.2324785  37.7759187
  97.5472049  57.3807421  38.3623817  97.9683057  57.4933051  36.9125936
 114.5713927  62.8606690  25.4449700 115.0965251  63.1993963  24.7199020
 114.4836279  61.9253705  25.2612835 106.2333975  66.7740764  37.5739577
 106.5421102  66.5289910  38.4462276 107.0309457  66.9787402  37.0858447
 106.2554587  68.9278673  29.8044953 105.8159578  68.4355052  30.4977810
 107.0062704  68.3851641  29.5637028  98.7346926  65.1190214  29.8069581
  99.5604946  64.8193986  29.4268225  98.3840978  64.3497836  30.2559370
 103.7028459  64.4716682  31.8767255 103.0808469  63.8087387  31.5769483
 104.3733326  64.4977814  31.1940903  96.9355531  63.0376540  30.7658515
  96.0987440  62.6098715  30.5842516  96.9079177  63.2308984  31.7029306
 103.7752987  52.9498470  41.4699761 103.8241142  53.8260593  41.0877530
 104.3175501  52.4075863  40.8971404 114.2607833  63.4939594  40.7500898
 113.4703376  63.4763732  40.2105397 114.0241187  64.0327887  41.5049934
 114.3805708  60.3432060  38.0633626 114.4303713  60.1782067  39.0049149
 114.2719631  59.4759319  37.6731507 103.2641966  63.0220606  25.3525715
 103.4130087  63.7056070  24.6992388 104.0708410  63.0025696  25.8675171
 111.6709470  56.3262988  39.3792933 112.5719333  56.1869453  39.0876931
 111.7457445  56.4917443  40.3191111 106.0052275  53.7029843  38.2246119
 105.1355585  53.9963409  37.9528708 106.2411756  54.2870288  38.9453383
 115.8823904  62.7629001  38.3075648 115.5908713  63.1258982  39.1439109
 115.2696036  62.0496010  38.1288980 114.1311093  57.8861616  36.7755706
 114.6065214  58.0789262  35.9674557 113.2076658  57.9420802  36.5299090
 101.0194599  59.0485783  26.3586784 100.7740641  58.1448113  26.5566994
 101.1890514  59.0502934  25.4166262 108.7091309  49.9209460  35.7411540
 109.2273253  50.6570487  35.4158028 108.3546442  50.2273453  36.5758299
 100.2890247  54.7814141  23.8572946  99.5959492  54.8558496  23.2012982
 100.0441999  54.0174484  24.3794463 108.9603903  46.3409742  31.2612436
 109.2405657  45.6732931  31.8872863 109.7454510  46.5338838  30.7487100
 106.7637372  65.5168736  22.8237463 106.1911339  66.1358923  22.3707935
 107.3370166  66.0668098  23.3577385 112.8312762  54.7627376  35.0084012
 113.7830185  54.8625474  35.0296236 112.6616212  53.9705645  35.5182096
 110.8527141  51.8482959  35.1943413 110.2577073  52.1287972  34.4989901
 110.5676838  52.3376860  35.9660154 109.9834632  65.8005886  23.9546045
 110.9165305  65.7351448  24.1578921 109.8957844  66.6362153  23.4960578
 112.6122648  65.1171757  20.9149993 112.5336280  64.7831620  21.8085751
 113.4332315  65.6093524  20.9141465 107.1484170  56.8529549  20.1653515
 108.0943275  56.7235757  20.2341933 106.7698415  56.1144211  20.6422943
 113.1206055  48.5185555  30.1280407 112.9230876  48.2100643  31.0123739
 113.7305760  49.2447194  30.2578337 107.0322863  60.9047295  41.6254172
 107.9525872  61.0825894  41.8194219 106.9972446  59.9603340  41.4733872
 105.3327088  54.7779525  20.1008400 104.4258543  54.4812638  20.1771114
 105.6103069  54.4809343  19.2342687  96.2505028  56.0985889  30.5507447
  95.9307812  55.2451197  30.2581821  95.7038456  56.3134467  31.3065414
 100.0284935  58.8148330  34.2676953 100.2470945  59.7465437  34.2864987
 100.4410709  58.4556304  35.0531757 106.9489153  49.3216415  26.2552642
 106.1389882  48.9763500  26.6307888 107.6373570  49.0123959  26.8440253
 108.8779702  48.3994462  27.8776938 109.4310740  48.8189915  28.5366962
 109.1149788  47.4730210  27.9199894 104.9012801  54.3881535  43.6579702
 104.8009528  55.3375892  43.5891793 104.6834343  54.0599774  42.7855772
 104.1025872  51.6366460  20.2420380 104.9645036  51.9621359  20.5016197
 104.2876216  50.8497956  19.7293445  96.1193288  59.7188800  32.5200568
  95.4256759  59.3042753  32.0070523  96.8666279  59.7609337  31.9233987
 112.2558509  50.5094987  27.3855603 111.6757178  51.1679791  27.0033655
 111.9894441  49.6872331  26.9743020 110.7062075  49.9100045  29.5876923
 111.2061853  50.0216579  28.7791242 111.3497683  49.6061097  30.2277731
 104.7644071  57.8178674  42.4744764 104.2811153  58.6179034  42.6808653
 104.8505010  57.8286619  41.5212208  98.0330030  59.6507054  30.3966583
  98.0100719  59.7494741  29.4448466  98.3430667  60.4972205  30.7183749
 100.6917408  61.7083209  34.5113198 101.6460662  61.6767151  34.4443129
 100.4929932  61.2473833  35.3263424 101.2816790  60.2784325  37.0783995
 102.1009679  60.7728404  37.1018833 101.5553598  59.3616293  37.0501563
 111.0383387  52.6695077  26.4411951 110.1509242  52.9544728  26.2232146
 111.4537376  52.5088841  25.5939228 114.3897923  52.6941598  30.1566290
 115.1658313  53.1838051  30.4290907 113.6646057  53.1199652  30.6138160
  99.0467637  67.2502828  31.5283396  98.9122105  66.4903229  30.9621394
  98.6299699  67.9743728  31.0612185 110.1826600  62.4339752  20.5359971
 110.8862450  62.6389754  21.1517627 109.4589249  63.0016514  20.8009054
 111.0124410  58.1849613  26.6562241 110.9559612  58.6418165  25.8169874
 111.5652753  57.4240298  26.4785084 114.8229216  53.9739345  27.4812361
 114.5666151  53.5735981  28.3120568 114.1982084  54.6883139  27.3562500
 102.2036763  68.1472145  31.7401838 102.0869147  69.0917578  31.6380529
 101.3829209  67.8445707  32.1287637 112.0913298  62.8722281  22.5858431
 112.9258901  62.4403480  22.4035906 111.9297640  62.7004295  23.5135325
 111.7459190  59.3754394  23.9514770 111.6907993  59.2098666  23.0103214
 111.1205245  60.0830427  24.1076960  96.5351705  54.6122459  37.7776192
  97.1810568  54.1021413  38.2663418  96.3268856  55.3491140  38.3519618
 109.0605097  61.6803306  43.2768333 109.9296256  61.8543959  42.9154968
 108.5811848  62.4997723  43.1544062 105.0555315  48.8762503  23.5300089
 105.0433985  49.8204343  23.6868360 105.9478737  48.6932649  23.2359550
 103.2291277  68.8000407  34.9557767 104.1318524  68.8324018  35.2724262
 103.0028647  67.8700858  34.9704103 104.9844879  67.5531394  31.6167845
 104.0340510  67.5533255  31.5032218 105.2877365  66.8064128  31.1003880
 108.8707435  45.4705280  27.7846025 108.1039830  44.9163767  27.9302708
 109.2818140  45.5427149  28.6460177 100.8749196  51.7590076  41.8751207
 101.7380657  51.4026881  42.0854531 100.3014606  51.4203971  42.5626611
 113.3874095  75.1954837  28.6072023 112.8238960  75.1044774  27.8388311
 113.2726490  74.3754741  29.0874516 110.9338527  76.6906028  31.4456244
 111.7259818  76.3496853  31.0302543 111.1735177  76.8001003  32.3658397
 112.8929280  75.9514942  24.3173623 113.6660156  75.4043929  24.1786498
 113.2454679  76.8159191  24.5288084 114.7314323  77.2791324  37.5240522
 114.4404189  78.1836955  37.4087188 115.3671307  77.3207851  38.2384591
 115.2295558  72.1107608  21.9492073 115.4821079  71.5889129  21.1875536
 114.2920117  71.9473753  22.0518756 114.9491847  74.0135714  24.1516448
 114.8328105  73.3380617  24.8197532 115.0594107  73.5268088  23.3348601
 113.1416690  73.4166536  30.5527020 112.2167186  73.2842750  30.7604712
 113.3901103  74.1960755  31.0496962 110.5025501  73.0599810  31.3870809
 110.6317882  73.3134289  32.3010221 109.8222952  73.6527518  31.0675464
 114.6724988  83.7297060  27.4861283 114.5949018  84.6804885  27.5649764
 114.0686631  83.3842932  28.1436210 113.6624787  75.6986599  32.2594916
 114.2326144  76.1273868  31.6212400 114.2532899  75.4169184  32.9579102
 114.1549954  70.8650027  40.5055927 113.5248614  71.5466308  40.7391324
 114.0486042  70.7533108  39.5609065 109.4494926  70.5321823  31.4321851
 108.6593980  70.7879351  30.9561962 109.9406174  71.3470161  31.5373892
 111.4009672  70.8966402  28.3905328 110.6040835  71.0085096  28.9088824
 111.1735264  71.2353054  27.5246219 107.7332629  70.7852313  33.8636842
 107.9840668  71.6699323  34.1294418 108.2692178  70.6056915  33.0911934
 113.4330696  65.1670793  42.8681178 113.0397642  64.6136991  43.5428823
 114.2496837  65.4781371  43.2587696 110.3992754  76.6054651  26.7794748
 110.9117275  77.3997901  26.9300313 111.0515467  75.9080941  26.7128350
 112.2087639  79.7220407  28.8617501 112.3854267  80.6438372  28.6738485
 113.0044472  79.4078826  29.2911881 111.4939995  71.7685039  38.7379665
 111.3793511  70.8670296  39.0386763 110.6384513  72.0148736  38.3864481
 113.3318954  81.2398581  34.8627844 113.8826379  81.1115644  34.0904838
 112.4930430  81.5393470  34.5122736 108.3641671  74.9343305  27.5554319
 109.2016893  75.3440313  27.3388026 108.5419939  73.9942747  27.5254513
 113.2257566  67.2955367  29.0797498 113.8001318  67.0730549  28.3470691
 113.8128548  67.3644062  29.8326100 113.5527153  69.3259828  23.0993384
 112.7164465  69.6634515  23.4202658 113.4131922  69.1908808  22.1620521
 115.5280233  64.1696616  27.8072568 114.8744646  63.8545633  27.1829183
 115.4860708  63.5472357  28.5332391 108.3867842  72.2734020  28.2265052
 108.1892242  71.6803381  27.5016119 107.8314506  71.9686231  28.9440991
 114.3056926  70.7834187  28.1050024 113.4924791  71.0828357  28.5115216
 114.8015920  70.3889875  28.8224506 113.7971000  68.3552542  33.7211259
 114.4370380  68.2141301  33.0234222 112.9648531  68.0687055  33.3449861
 114.5731304  77.6554973  29.8346252 115.3671903  77.1605293  29.6328826
 113.8622997  77.1272836  29.4713957 110.8814068  71.7998054  25.9106004
 109.9511656  71.7382510  26.1275966 110.9771540  71.2774007  25.1142645
 110.7999617  68.3252867  28.4984246 111.0606434  69.2398200  28.3893406
 111.6216789  67.8577310  28.6480859 112.2724542  69.7390624  35.6683070
 112.9447596  69.5307986  35.0195719 111.4454329  69.5412710  35.2288303
 112.6752039  73.0133227  36.4285508 112.5371837  72.2813466  37.0297047
 113.5856963  72.9242127  36.1469695 114.0163274  69.7118404  37.7364827
 113.4800631  69.2609143  38.3886423 113.4279983  69.8464313  36.9935291
 112.3111818  86.4782454  31.6309485 112.5508416  87.1100978  32.3088504
 111.4681014  86.1270494  31.9174845 113.4265533  69.1707056  20.2991290
 112.5494999  69.0495857  19.9353537 113.9023286  68.3793134  20.0470179
 104.9467673  73.9584216  30.3932797 105.6338713  73.6445946  29.8053813
 104.7915802  74.8625580  30.1200049 109.7502395  68.8474412  34.8217821
 109.6660584  68.2400082  34.0868231 108.9285102  69.3383430  34.8227318
 114.3350277  79.9342854  37.0114719 115.0359736  80.5679337  37.1644113
 113.8645392  80.2757585  36.2510358 109.9317995  79.4679209  33.9445821
 110.5171431  78.7222897  34.0773726 109.7342833  79.7783165  34.8282485
 112.7856650  82.5030456  28.9608264 112.1167025  82.9876584  28.4772304
 112.6469520  82.7499677  29.8751642 104.5235649  72.0384809  32.6650265
 104.5619749  71.5048400  33.4587383 104.0175942  71.5120014  32.0461242
 111.9026412  66.8849349  36.1612807 111.9667738  67.7464180  35.7490205
 111.8393532  66.2723351  35.4285165 111.3778684  68.9572482  39.8085841
 112.0050723  68.5749559  40.4223366 110.5206603  68.7386684  40.1741534
 108.1544227  70.7648911  25.7404196 108.4497668  69.8559589  25.6871250
 107.2532263  70.7436651  25.4185198 111.6838474  68.8404908  31.7231745
 110.9625060  69.4540875  31.5839218 112.4731730  69.3762672  31.6448391
 114.4864787  66.1759334  37.9972396 115.0099189  66.4221631  38.7598706
 114.2677121  67.0079369  37.5775534 109.8832068  68.4463009  25.8643521
 109.5544775  67.5660388  25.6818627 110.2371439  68.3910677  26.7519910
 112.9973892  68.7335979  26.2318999 113.3369964  69.2621900  25.5097607
 113.4446012  69.0716385  27.0077565 115.6917332  67.1173029  35.6822067
 115.3514153  66.3180842  36.0842747 114.9856339  67.4174740  35.1098900
 114.9842039  67.2310600  24.4312292 115.7050401  67.6091853  23.9276008
 114.3607343  67.9499477  24.5347270 113.8672383  70.8941462  31.9441369
 113.7216964  71.2081765  32.8365650 113.3897587  71.5126363  31.3912267
 108.3418045  73.4346807  34.8829030 107.7971513  74.2106615  35.0149304
 109.2197395  73.7817611  34.7248151 115.1305662  66.7658391  27.2609828
 115.2521573  65.8375037  27.4600716 114.8407704  66.7797077  26.3488144
 109.1284067  72.5616703  37.7759187 108.3865803  72.7099338  38.3623817
 108.8076811  72.8224969  36.9125936 109.5740681  80.4482132  29.8069581
 110.3998701  80.1485904  29.4268225 109.2234733  79.6789754  30.2559370
 114.5422214  79.8008600  31.8767255 113.9202223  79.1379305  31.5769483
 115.2127081  79.8269732  31.1940903 107.7749286  78.3668458  30.7658515
 106.9381194  77.9390633  30.5842516 107.7472931  78.5600902  31.7029306
 114.6146741  68.2790388  41.4699761 114.6634897  69.1552511  41.0877530
 115.1569256  67.7367781  40.8971404 114.1035721  78.3512523  25.3525715
 114.2523841  79.0347988  24.6992388 114.9102164  78.3317613  25.8675171
 111.8588354  74.3777701  26.3586784 111.6134396  73.4740031  26.5566994
 112.0284268  74.3794851  25.4166262 111.1284001  70.1106058  23.8572946
 110.4353246  70.1850413  23.2012982 110.8835753  69.3466402  24.3794463
 107.0898782  71.4277806  30.5507447 106.7701567  70.5743114  30.2581821
 106.5432211  71.6426384  31.3065414 110.8678690  74.1440247  34.2676953
 111.0864700  75.0757355  34.2864987 111.2804464  73.7848222  35.0531757
 115.7406555  69.7173453  43.6579702 115.6403282  70.6667810  43.5891793
 115.5228097  69.3891692  42.7855772 114.9419627  66.9658378  20.2420380
 115.8038791  67.2913276  20.5016197 115.1269971  66.1789874  19.7293445
 106.9587042  75.0480718  32.5200568 106.2650514  74.6334671  32.0070523
 107.7060033  75.0901254  31.9233987 115.6037825  73.1470592  42.4744764
 115.1204907  73.9470952  42.6808653 115.6898764  73.1578537  41.5212208
 108.8723785  74.9798972  30.3966583 108.8494473  75.0786659  29.4448466
 109.1824421  75.8264122  30.7183749 111.5311163  77.0375127  34.5113198
 112.4854416  77.0059069  34.4443129 111.3323686  76.5765750  35.3263424
 112.1210545  75.6076243  37.0783995 112.9403434  76.1020321  37.1018833
 112.3947353  74.6908211  37.0501563 109.8861392  82.5794746  31.5283396
 109.7515860  81.8195147  30.9621394 109.4693454  83.3035646  31.0612185
 113.0430517  83.4764063  31.7401838 112.9262902  84.4209496  31.6380529
 112.2222964  83.1737625  32.1287637 107.3745459  69.9414376  37.7776192
 108.0204323  69.4313330  38.2663418 107.1662610  70.6783058  38.3519618
 114.0685032  84.1292325  34.9557767 114.9712278  84.1615935  35.2724262
 113.8422402  83.1992776  34.9704103 111.7142950  67.0881994  41.8751207
 112.5774412  66.7318798  42.0854531 111.1408361  66.7495888  42.5626611
 115.3629404  87.3676727  32.6650265 115.4013503  86.8340317  33.4587383
 114.8569697  86.8411932  32.0461242  68.9536801   2.1676906  18.3554792
  69.1933399   2.7995430  19.0333811  68.1105997   1.8164946  18.6420151
  80.8692832   6.2141206  15.3317330  80.3057697   6.1231143  14.5633618
  80.7545227   5.3941111  15.8119823  78.4157264   7.7092398  18.1701550
  79.2078556   7.3683223  17.7547850  78.6553914   7.8187373  19.0903704
  82.2133061   8.2977693  24.2485829  81.9222927   9.2023324  24.1332495
  82.8490045   8.3394221  24.9629898  87.1722946   7.9839109  21.2435622
  86.8723669   8.8864148  21.1351429  86.8274005   7.7171292  22.0956775
  77.9844238   4.0786179  18.1116116  78.1136620   4.3320658  19.0255527
  77.3041690   4.6713887  17.7920771  82.1543726  14.7483429  14.2106590
  82.0767755  15.6991254  14.2895071  81.5505369  14.4029302  14.8681516
  84.2519444   7.1701487  16.0460459  84.7157789   7.4489190  15.2565082
  83.9876242   6.2684932  15.8633550  81.1443525   6.7172969  18.9840223
  81.7144882   7.1460237  18.3457707  81.7351637   6.4355553  19.6824408
  84.7134077   8.4397475  23.0633149  84.7778509   8.9017882  23.8991321
  84.0045001   7.8094840  23.1915459  77.8811492   7.6241020  13.5040055
  78.3936013   8.4184271  13.6545619  78.5334205   6.9267311  13.4373656
  79.6906377  10.7406777  15.5862808  79.8673005  11.6624741  15.3983792
  80.4863210  10.4265196  16.0157188  86.0550571  10.7289149  27.0612472
  85.6114425   9.9425527  26.7433376  86.7167785  10.9168299  26.3956363
  80.8137692  12.2584950  21.5873150  81.3645117  12.1302014  20.8150144
  79.9749168  12.5579839  21.2368043  88.1531809  11.0091949  25.0893873
  88.1350284  11.8300830  24.5974142  89.0751729  10.8846024  25.3144014
  84.6104863   8.5236078  25.9317381  85.1433200   7.7624366  25.7016689
  84.0818944   8.2309730  26.6741536  75.8460409   5.9529675  14.2799625
  76.6835631   6.3626683  14.0633333  76.0238676   5.0129117  14.2499819
  83.9384241  11.7978313  16.7629595  83.8960420  12.0239159  15.8338127
  84.8546940  11.5641688  16.9115397  82.0550042   8.6741342  16.5591558
  82.8490641   8.1791662  16.3574133  81.3441735   8.1459205  16.1959264
  86.8744887  11.0559438  20.9103926  86.9281909  11.6250374  21.6781642
  86.0059668  11.2261323  20.5457963  84.6321318   9.2470364  20.2389395
  84.4932404   8.8789148  21.1115333  83.8435914   9.7618003  20.0673353
  85.2269470  14.3479461  11.5814932  85.4021226  13.8767504  12.3960554
  84.5402258  14.9745227  11.8096193  86.1826533   8.6251967  17.6278233
  85.8476366   8.5852737  18.5235883  85.6830479   7.9596683  17.1548643
  90.7739857  10.6806909  25.5621073  90.7152403   9.9966130  24.8951656
  91.1759375  11.4225899  25.1101699  79.7930555  17.4968823  18.3554792
  80.0327154  18.1287347  19.0333811  78.9499752  17.1456863  18.6420151
  72.4286411   4.9770585  17.1178104  73.1157451   4.6632315  16.5299119
  72.2734540   5.8811950  16.8445356  84.3058417  13.3047946  20.7596296
  84.2328589  14.1102917  21.2715601  83.8635810  13.5039912  19.9344317
  84.0948197  12.5419716  14.2699117  83.3115719  13.0841396  14.3637342
  84.7940942  13.0593695  14.6693359  86.7657101  13.2034780  22.9154455
  87.4785073  13.8382245  22.8430356  86.2747129  13.2998646  22.0994456
  81.8169014  10.9529223  23.7360025  82.5178474  11.5865706  23.8889420
  81.3464129  11.2943955  22.9755665  86.5777474  13.5433524  15.6640746
  86.7599869  12.7255180  16.1268498  87.4010460  13.7601216  15.2265636
  77.4136732  10.4865578  20.6691128  77.9990169   9.7409266  20.8019032
  77.2161571  10.7969535  21.5527792  80.2675388  13.5216826  15.6853570
  79.5985763  14.0062953  15.2017611  80.1288257  13.7686046  16.5996949
  72.0054387   3.0571178  19.3895571  72.0438487   2.5234769  20.1832689
  71.4994680   2.5306384  18.7706548  84.4080656  15.5560569  22.2836229
  84.9598964  15.7192191  23.0485314  84.7486850  16.1465007  21.6116254
  89.2591531  10.3821827  28.1384883  89.8031434  10.9951785  27.6439838
  88.6778375  10.9401405  28.6551896  87.5449043  13.5042545  19.2699911
  87.4200183  12.7032285  18.7610857  88.2028135  13.9988738  18.7813881
  89.6083952  11.3051565  20.8979461  88.6614287  11.1856916  20.8257788
  89.9566725  10.4174063  20.9805723  86.6130385  11.1004281  17.0983813
  86.4655348  10.1720988  17.2791383  87.4383879  11.1224372  16.6140889
  90.2164507  11.9232840  18.1848686  91.1411054  11.7175701  18.0473137
  90.0479810  11.6749241  19.0938028  75.8236783   4.4533176  21.6074336
  75.2790251   5.2292984  21.7394611  76.7016133   4.8003981  21.4493458
  76.6102805   3.5803073  24.5004493  75.8684541   3.7285708  25.0869124
  76.2895549   3.8411338  23.6371243  84.5546467  13.1219051  24.2984883
  84.8633594  12.8768198  25.1707583  85.3521950  13.3265689  23.8103753
  84.5767080  15.2756960  16.5290260  84.1372070  14.7833339  17.2223116
  85.3275197  14.7329928  16.2882335  77.0559419  11.4668501  16.5314888
  77.8817438  11.1672273  16.1513531  76.7053471  10.6976124  16.9804677
  82.0240952  10.8194969  18.6012561  81.4020961  10.1565675  18.3014789
  82.6945819  10.8456101  17.9186209  75.2568024   9.3854828  17.4903821
  74.4199932   8.9577002  17.3087823  75.2291669   9.5787271  18.4274613
  92.5820325   9.8417881  27.4746205  91.7915869   9.8242020  26.9350704
  92.3453679  10.3806174  28.2295241  81.5854459   9.3698893  12.0771022
  81.7342579  10.0534357  11.4237695  82.3920902   9.3503983  12.5920478
  79.3407092   5.3964070  13.0832091  79.0953134   4.4926400  13.2812301
  79.5103006   5.3981221  12.1411569  78.3497428   5.1626617  20.9922260
  78.5683437   6.0943725  21.0110294  78.7623202   4.8034591  21.7777064
  74.4405780   6.0667087  19.2445875  73.7469252   5.6521040  18.7315830
  75.1878771   6.1087624  18.6479294  76.3542523   5.9985341  17.1211890
  76.3313211   6.0973028  16.1693773  76.6643159   6.8450492  17.4429056
  79.0129901   8.0561496  21.2358504  79.9673154   8.0245438  21.1688436
  78.8142424   7.5952120  22.0508730  79.6029283   6.6262612  23.8029302
  80.4222172   7.1206691  23.8264139  79.8766090   5.7094580  23.7746870
  77.3680129  13.5981116  18.2528702  77.2334597  12.8381517  17.6866700
  76.9512192  14.3222015  17.7857491  80.5249255  14.4950433  18.4647145
  80.4081639  15.4395865  18.3625835  79.7041702  14.1923994  18.8532944
  87.3817589   8.0281594  30.0013640  88.2508749   8.2022246  29.6400275
  86.9024341   8.8476010  29.8789369  81.5503769  15.1478695  21.6803073
  82.4531016  15.1802305  21.9969568  81.3241139  14.2179145  21.6949409
  83.3057371  13.9009681  18.3413152  82.3553002  13.9011543  18.2277524
  83.6089858  13.1542416  17.8249187  95.8499771  19.6897648  19.3420439
  95.5118283  19.5738712  18.4540974  96.7189539  19.2888813  19.3221445
  91.7086587  21.5433124  15.3317330  91.1451452  21.4523061  14.5633618
  91.5938982  20.7233028  15.8119823  96.3319554  20.8432499  25.3006645
  96.3208195  20.4485298  24.4287148  96.4940194  20.1098572  25.8940416
  89.2551019  23.0384316  18.1701550  90.0472311  22.6975140  17.7547850
  89.4947669  23.1479291  19.0903704  93.0526815  23.6269611  24.2485829
  92.7616681  24.5315242  24.1332495  93.6883800  23.6686139  24.9629898
  93.9783022  21.0046460  20.8387188  94.5746594  20.7802482  20.1244151
  94.0357994  20.2631205  21.4412636  98.0116700  23.3131027  21.2435622
  97.7117423  24.2156065  21.1351429  97.6667760  23.0463210  22.0956775
  91.4629182  19.7644823  17.2772327  90.5379678  19.6321038  17.4850018
  91.7113595  20.5439043  17.7742269  88.8237993  19.4078097  18.1116116
  88.9530374  19.6612576  19.0255527  88.1435444  20.0005805  17.7920771
  92.9937480  30.0775347  14.2106590  92.9161510  31.0283172  14.2895071
  92.3899124  29.7321219  14.8681516  95.4854710  17.2503212  26.8667957
  94.7088044  17.8097133  26.8570821  96.1245273  17.7359995  27.3882827
  93.7401082  20.0588666  26.4285924  94.4815767  20.5973710  26.1520747
  93.0338068  20.6854955  26.5857476  99.2156422  22.2017806  25.0258085
  99.6239778  21.7600217  24.2812718  98.4933683  21.6270434  25.2792278
  95.5687492  17.1390413  22.3991642  96.4148687  17.5629827  22.5426291
  95.5086130  16.4824037  23.0930205  99.5385237  22.7618997  18.7810374
  98.9094099  22.9264711  18.0786442  99.1510899  23.1760606  19.5521338
  98.7186937  14.7994781  24.0572816  98.4747869  15.5536842  23.5207092
  98.9946868  15.1780129  24.8920063 100.6725400  21.3433394  22.7350082
 100.8842295  21.9865154  22.0584463 100.6255148  20.5095710  22.2672012
  95.0913198  22.4993405  16.0460459  95.5551544  22.7781108  15.2565082
  94.8269997  21.5976850  15.8633550  91.9837279  22.0464886  18.9840223
  92.5538637  22.4752155  18.3457707  92.5745391  21.7647471  19.6824408
  92.4762446  17.2128314  27.2301234  91.8461107  17.8944595  27.4636631
  92.3698534  17.1011396  26.2854372  87.7707418  16.8800110  18.1567158
  86.9806472  17.1357638  17.6807269  88.2618666  17.6948448  18.2619199
 101.7871228  24.2205349  20.9072439 102.6088672  23.8185536  20.6255120
 101.7833631  24.1173583  21.8588555  89.7222164  17.2444689  15.1150635
  88.9253327  17.3563383  15.6334130  89.4947756  17.5831341  14.2491525
  95.5527831  23.7689392  23.0633149  95.6172264  24.2309800  23.8991321
  94.8438755  23.1386757  23.1915459  86.0545121  17.1330600  20.5882149
  86.3053160  18.0177610  20.8539725  86.5904670  16.9535202  19.8157241
  91.7543189  11.5149080  29.5926485  91.3610134  10.9615278  30.2674129
  92.5709329  11.8259658  29.9833002  88.7205246  22.9532938  13.5040055
  89.2329767  23.7476188  13.6545619  89.3727959  22.2559228  13.4373656
  90.5300131  26.0698694  15.5862808  90.7066760  26.9916659  15.3983792
  91.3256965  25.7557113  16.0157188  94.6711150  12.9306959  27.1846741
  95.4120863  13.5314112  27.1051204  94.9029073  12.1884597  26.6264784
  89.8152488  18.1163326  25.4624971  89.7006003  17.2148583  25.7632070
  88.9597005  18.3627023  25.1109788  96.8944325  26.0581066  27.0612472
  96.4508180  25.2717445  26.7433376  97.5561539  26.2460217  26.3956363
  91.6531447  27.5876868  21.5873150  92.2038872  27.4593931  20.8150144
  90.8142923  27.8871757  21.2368043  98.9925564  26.3383866  25.0893873
  98.9744039  27.1592747  24.5974142  99.9145484  26.2137942  25.3144014
  95.4498618  23.8527996  25.9317381  95.9826954  23.0916284  25.7016689
  94.9212699  23.5601648  26.6741536  86.6854163  21.2821592  14.2799625
  87.5229385  21.6918601  14.0633333  86.8632431  20.3421034  14.2499819
  86.7080334  18.6212308  14.9510359  86.5104734  18.0281668  14.2261425
  86.1526998  18.3164518  15.6686298  94.6877058  18.5135414  17.0704952
  94.7425668  17.5609250  16.9947428  93.8768260  18.6694853  17.5546250
  94.7777996  27.1270231  16.7629595  94.7354175  27.3531077  15.8338127
  95.6940695  26.8933605  16.9115397  98.2243630  17.5954298  23.6610225
  98.5793017  17.8225771  24.5204690  98.8715761  17.9272675  23.0387480
  92.1183493  14.7030829  20.4456566  92.7582872  14.5619588  19.7479529
  91.2861023  14.4165343  20.0695168  92.8943797  24.0033260  16.5591558
  93.6884395  23.5083580  16.3574133  92.1835489  23.4751123  16.1959264
  97.7138641  26.3851355  20.9103926  97.7675663  26.9542292  21.6781642
  96.8453422  26.5553240  20.5457963  89.1212109  14.6731154  15.2229553
  89.3818926  15.5876488  15.1138713  89.9429281  14.2055597  15.3726165
  90.5937034  16.0868911  22.3928377  91.2660088  15.8786274  21.7441026
  89.7666821  15.8890997  21.9533609  96.4962606  12.7130852  24.4094038
  95.8490522  13.4120802  24.3158514  97.2663622  13.1466996  24.7770286
  99.9041404  22.9779705  27.4844591  99.7526911  22.7490256  26.5674675
  99.8946084  23.9350306  27.4975936  96.6726741  20.5511617  22.4690858
  97.6018801  20.7022777  22.2959825  96.2517771  20.6395638  21.6139504
  95.4715073  24.5762282  20.2389395  95.3326158  24.2081066  21.1115333
  94.6829669  25.0909921  20.0673353  96.0663225  29.6771378  11.5814932
  96.2414980  29.2059421  12.3960554  95.3796013  30.3037144  11.8096193
  97.0220288  23.9543884  17.6278233  96.6870120  23.9144654  18.5235883
  96.5224233  23.2888600  17.1548643  90.9964532  19.3611514  23.1530814
  90.8584330  18.6291753  23.7542353  91.9069455  19.2720415  22.8715002
  93.6246832  19.0731474  22.6414494  94.3346451  18.4324666  22.6001112
  93.5816141  19.3244369  23.5640675 101.6133611  26.0098827  25.5621073
 101.5546157  25.3258047  24.8951656 102.0153129  26.7517817  25.1101699
  92.3375766  16.0596692  24.4610133  91.8013123  15.6087430  25.1131730
  91.7492475  16.1942600  23.7180598  90.6324310  32.8260741  18.3554792
  90.8720908  33.4579265  19.0333811  89.7893506  32.4748781  18.6420151
 101.6151018  23.9738411  23.7935053 100.7277797  23.6364333  23.9161452
 102.1849569  23.2421442  24.0303818  83.2680165  20.3062503  17.1178104
  83.9551205  19.9924233  16.5299119  83.1128294  21.2103867  16.8445356
  88.0714888  15.1952699  21.5463128  87.9873076  14.5878369  20.8113538
  87.2497594  15.6861718  21.5472624  95.1452172  28.6339863  20.7596296
  95.0722343  29.4394835  21.2715601  94.7029565  28.8331829  19.9344317
  94.9341951  27.8711633  14.2699117  94.1509473  28.4133314  14.3637342
  95.6334697  28.3885613  14.6693359  97.6050855  28.5326697  22.9154455
  98.3178827  29.1674162  22.8430356  97.1140884  28.6290563  22.0994456
  92.6562769  26.2821141  23.7360025  93.3572228  26.9157624  23.8889420
  92.1857884  26.6235872  22.9755665  97.4171229  28.8725442  15.6640746
  97.5993623  28.0547097  16.1268498  98.2404215  29.0893134  15.2265636
  96.5051628  19.5785559  28.0478613  95.8292265  19.4779689  28.7180988
  97.3279262  19.4224773  28.5114610  88.2530487  25.8157496  20.6691128
  88.8383924  25.0701184  20.8019032  88.0555325  26.1261453  21.5527792
  91.1069142  28.8508743  15.6853570  90.4379517  29.3354871  15.2017611
  90.9682012  29.0977964  16.5996949  82.8448142  18.3863096  19.3895571
  82.8832241  17.8526687  20.1832689  82.3388434  17.8598302  18.7706548
  95.2474411  30.8852487  22.2836229  95.7992719  31.0484108  23.0485314
  95.5880604  31.4756925  21.6116254  90.2238904  13.2327637  22.8858114
  90.2880230  14.0942468  22.4735511  90.1606024  12.6201638  22.1530472
  89.6991176  15.3050769  26.5331148  90.3263215  14.9227847  27.1468672
  88.8419095  15.0864971  26.8986840 100.0985285  25.7113744  28.1384883
 100.6425189  26.3243703  27.6439838  99.5172130  26.2693323  28.6551896
  86.4756719  17.1127198  12.4649503  86.7710160  16.2037877  12.4116556
  85.5744755  17.0914938  12.1430505  98.3842798  28.8334462  19.2699911
  98.2593937  28.0324202  18.7610857  99.0421889  29.3280656  18.7813881
  90.0050966  15.1883195  18.4477051  89.2837552  15.8019163  18.3084525
  90.7944222  15.7240960  18.3693697 100.4477706  26.6343482  20.8979461
  99.5008042  26.5148834  20.8257788 100.7960479  25.7465981  20.9805723
  92.8077280  12.5237621  24.7217703  93.3311682  12.7699918  25.4844012
  92.5889613  13.3557656  24.3020840  97.4524140  26.4296199  17.0983813
  97.3049102  25.5012906  17.2791383  98.2777633  26.4516289  16.6140889
 101.0558261  27.2524757  18.1848686 101.9804809  27.0467619  18.0473137
 100.8873565  27.0041159  19.0938028  94.0129825  13.4651317  22.4067374
  93.6726645  12.6659130  22.8088053  93.3068831  13.7653027  21.8344207
  92.1884875  17.2419750  18.6686675  92.0429456  17.5560053  19.5610957
  91.7110079  17.8604650  18.1157574  95.9007389  14.6659638  20.7620692
  95.6425167  15.5876708  20.7605023  95.3692429  14.2690072  21.4521156
  86.6630537  19.7825094  21.6074336  86.1184006  20.5584902  21.7394611
  87.5409887  20.1295898  21.4493458  87.4496559  18.9094990  24.5004493
  86.7078295  19.0577626  25.0869124  87.1289304  19.1703256  23.6371243
  95.3940222  28.4510968  24.2984883  95.7027348  28.2060115  25.1707583
  96.1915704  28.6557607  23.8103753  95.4160834  30.6048878  16.5290260
  94.9765824  30.1125257  17.2223116  96.1668951  30.0621846  16.2882335
  87.8953173  26.7960419  16.5314888  88.7211193  26.4964191  16.1513531
  87.5447225  26.0268041  16.9804677  92.8634706  26.1486887  18.6012561
  92.2414715  25.4857592  18.3014789  93.5339573  26.1748019  17.9186209
  86.0961778  24.7146745  17.4903821  85.2593686  24.2868920  17.3087823
  86.0685423  24.9079189  18.4274613  92.9359234  14.6268675  28.1945067
  92.9847389  15.5030798  27.8122837  93.4781748  14.0846068  27.6216711
 103.4214079  25.1709798  27.4746205 102.6309623  25.1533937  26.9350704
 103.1847434  25.7098092  28.2295241 103.5411954  22.0202265  24.7878933
 103.5909959  21.8552272  25.7294456 103.4325878  21.1529524  24.3976814
  92.4248213  24.6990811  12.0771022  92.5736333  25.3826275  11.4237695
  93.2314657  24.6795901  12.5920478 100.8315717  18.0033193  26.1038240
 101.7325580  17.8639658  25.8122238 100.9063691  18.1687648  27.0436417
  95.1658522  15.3800048  24.9491426  94.2961832  15.6733614  24.6774015
  95.4018002  15.9640493  25.6698690 105.0430151  24.4399206  25.0320955
 104.7514960  24.8029187  25.8684416 104.4302283  23.7266215  24.8534287
  90.1800846  20.7255988  13.0832091  89.9346888  19.8218318  13.2812301
  90.3496761  20.7273139  12.1411569  96.1929110  22.5817500  28.3499479
  97.1132119  22.7596099  28.5439525  96.1578693  21.6373545  28.1979178
  85.4111275  17.7756094  17.2752754  85.0914059  16.9221402  16.9827128
  84.8644703  17.9904672  18.0310721  89.1891182  20.4918535  20.9922260
  89.4077192  21.4235642  21.0110294  89.6016956  20.1326509  21.7777064
  94.0619048  16.0651740  30.3825009  93.9615774  17.0146097  30.3137100
  93.8440590  15.7369979  29.5101079  85.2799535  21.3959005  19.2445875
  84.5863006  20.9812958  18.7315830  86.0272526  21.4379542  18.6479294
  93.9250318  19.4948879  29.1990071  93.4417399  20.2949239  29.4053960
  94.0111257  19.5056824  28.2457515  87.1936277  21.3277259  17.1211890
  87.1706965  21.4264946  16.1693773  87.5036914  22.1742410  17.4429056
  89.8523655  23.3853414  21.2358504  90.8066909  23.3537356  21.1688436
  89.6536179  22.9244038  22.0508730  90.4423037  21.9554530  23.8029302
  91.2615926  22.4498609  23.8264139  90.7159845  21.0386498  23.7746870
  88.2073884  28.9273033  18.2528702  88.0728352  28.1673434  17.6866700
  87.7905946  29.6513933  17.7857491  91.3643010  29.8242350  18.4647145
  91.2475394  30.7687783  18.3625835  90.5435456  29.5215912  18.8532944
  85.6957951  16.2892664  24.5021499  86.3416815  15.7791618  24.9908724
  85.4875103  17.0261345  25.0764924  98.2211344  23.3573511  30.0013640
  99.0902503  23.5314163  29.6400275  97.7418095  24.1767928  29.8789369
  92.3897524  30.4770612  21.6803073  93.2924771  30.5094222  21.9969568
  92.1634894  29.5471063  21.6949409  94.1451126  29.2301599  18.3413152
  93.1946757  29.2303460  18.2277524  94.4483612  28.4834333  17.8249187
  90.0355442  13.4360281  28.5996513  90.8986904  13.0797086  28.8099838
  89.4620853  13.0974176  29.2871918 106.6893526  35.0189565  19.3420439
 106.3512037  34.9030630  18.4540974 107.5583294  34.6180730  19.3221445
 102.5480341  36.8725042  15.3317330 101.9845206  36.7814979  14.5633618
 102.4332736  36.0524946  15.8119823 107.1713309  36.1724417  25.3006645
 107.1601949  35.7777215  24.4287148 107.3333948  35.4390490  25.8940416
 100.0944773  38.3676233  18.1701550 100.8866065  38.0267058  17.7547850
 100.3341423  38.4771208  19.0903704 103.8920570  38.9561529  24.2485829
 103.6010436  39.8607160  24.1332495 104.5277554  38.9978056  24.9629898
 104.8176777  36.3338377  20.8387188 105.4140349  36.1094400  20.1244151
 104.8751748  35.5923123  21.4412636 108.8510455  38.6422944  21.2435622
 108.5511178  39.5447983  21.1351429 108.5061514  38.3755128  22.0956775
 102.3022936  35.0936741  17.2772327 101.3773433  34.9612955  17.4850018
 102.5507350  35.8730960  17.7742269  99.6631747  34.7370015  18.1116116
  99.7924129  34.9904494  19.0255527  98.9829199  35.3297723  17.7920771
 103.8331235  45.4067265  14.2106590 103.7555264  46.3575090  14.2895071
 103.2292878  45.0613137  14.8681516 106.3248464  32.5795130  26.8667957
 105.5481798  33.1389050  26.8570821 106.9639027  33.0651913  27.3882827
 104.5794837  35.3880583  26.4285924 105.3209521  35.9265627  26.1520747
 103.8731822  36.0146872  26.5857476 110.0550176  37.5309724  25.0258085
 110.4633532  37.0892134  24.2812718 109.3327438  36.9562351  25.2792278
 106.4081246  32.4682331  22.3991642 107.2542442  32.8921744  22.5426291
 106.3479884  31.8115955  23.0930205 110.3778991  38.0910915  18.7810374
 109.7487853  38.2556629  18.0786442 109.9904653  38.5052524  19.5521338
 109.5580692  30.1286699  24.0572816 109.3141624  30.8828760  23.5207092
 109.8340622  30.5072047  24.8920063 111.5119155  36.6725311  22.7350082
 111.7236050  37.3157071  22.0584463 111.4648903  35.8387628  22.2672012
 105.9306953  37.8285323  16.0460459 106.3945298  38.1073026  15.2565082
 105.6663751  36.9268767  15.8633550 102.8231034  37.3756804  18.9840223
 103.3932391  37.8044073  18.3457707 103.4139146  37.0939389  19.6824408
 103.3156200  32.5420232  27.2301234 102.6854861  33.2236512  27.4636631
 103.2092288  32.4303313  26.2854372  98.6101173  32.2092028  18.1567158
  97.8200227  32.4649556  17.6807269  99.1012420  33.0240366  18.2619199
 112.6264982  39.5497267  20.9072439 113.4482426  39.1477454  20.6255120
 112.6227385  39.4465501  21.8588555 100.5615918  32.5736607  15.1150635
  99.7647082  32.6855301  15.6334130 100.3341510  32.9123259  14.2491525
 106.3921586  39.0981310  23.0633149 106.4566018  39.5601717  23.8991321
 105.6832510  38.4678675  23.1915459  96.8938876  32.4622518  20.5882149
  97.1446914  33.3469528  20.8539725  97.4298424  32.2827120  19.8157241
 102.5936943  26.8440997  29.5926485 102.2003889  26.2907196  30.2674129
 103.4103084  27.1551576  29.9833002  99.5599001  38.2824856  13.5040055
 100.0723522  39.0768106  13.6545619 100.2121714  37.5851146  13.4373656
 101.3693886  41.3990612  15.5862808 101.5460514  42.3208577  15.3983792
 102.1650719  41.0849031  16.0157188 105.5104904  28.2598877  27.1846741
 106.2514618  28.8606030  27.1051204 105.7422827  27.5176514  26.6264784
 100.6546242  33.4455244  25.4624971 100.5399757  32.5440501  25.7632070
  99.7990760  33.6918941  25.1109788 107.7338080  41.3872984  27.0612472
 107.2901934  40.6009363  26.7433376 108.3955294  41.5752135  26.3956363
 102.4925201  42.9168786  21.5873150 103.0432626  42.7885849  20.8150144
 101.6536677  43.2163675  21.2368043 109.8319318  41.6675784  25.0893873
 109.8137793  42.4884665  24.5974142 110.7539238  41.5429859  25.3144014
 106.2892372  39.1819914  25.9317381 106.8220709  38.4208202  25.7016689
 105.7606453  38.8893565  26.6741536  97.5247918  36.6113510  14.2799625
  98.3623140  37.0210518  14.0633333  97.7026185  35.6712952  14.2499819
  97.5474089  33.9504225  14.9510359  97.3498489  33.3573586  14.2261425
  96.9920753  33.6456435  15.6686298 105.5270813  33.8427332  17.0704952
 105.5819422  32.8901168  16.9947428 104.7162015  33.9986771  17.5546250
 105.6171750  42.4562148  16.7629595 105.5747929  42.6822995  15.8338127
 106.5334449  42.2225523  16.9115397 109.0637384  32.9246216  23.6610225
 109.4186772  33.1517689  24.5204690 109.7109515  33.2564593  23.0387480
 102.9577247  30.0322747  20.4456566 103.5976627  29.8911506  19.7479529
 102.1254778  29.7457260  20.0695168 103.7337551  39.3325177  16.5591558
 104.5278150  38.8375498  16.3574133 103.0229244  38.8043041  16.1959264
 108.5532396  41.7143273  20.9103926 108.6069418  42.2834209  21.6781642
 107.6847177  41.8845158  20.5457963  99.9605864  30.0023072  15.2229553
 100.2212681  30.9168405  15.1138713 100.7823036  29.5347515  15.3726165
 101.4330789  31.4160829  22.3928377 102.1053842  31.2078191  21.7441026
 100.6060575  31.2182915  21.9533609 107.3356361  28.0422770  24.4094038
 106.6884276  28.7412720  24.3158514 108.1057376  28.4758914  24.7770286
 110.7435159  38.3071622  27.4844591 110.5920665  38.0782174  26.5674675
 110.7339838  39.2642224  27.4975936 107.5120495  35.8803535  22.4690858
 108.4412555  36.0314695  22.2959825 107.0911525  35.9687556  21.6139504
 106.3108827  39.9054199  20.2389395 106.1719913  39.5372984  21.1115333
 105.5223423  40.4201839  20.0673353 106.9056979  45.0063296  11.5814932
 107.0808735  44.5351339  12.3960554 106.2189767  45.6329062  11.8096193
 107.8614042  39.2835802  17.6278233 107.5263875  39.2436572  18.5235883
 107.3617988  38.6180518  17.1548643 101.8358286  34.6903432  23.1530814
 101.6978084  33.9583671  23.7542353 102.7463210  34.6012332  22.8715002
 104.4640587  34.4023391  22.6414494 105.1740205  33.7616584  22.6001112
 104.4209895  34.6536286  23.5640675 112.4527366  41.3390745  25.5621073
 112.3939912  40.6549965  24.8951656 112.8546884  42.0809735  25.1101699
 103.1769521  31.3888609  24.4610133 102.6406878  30.9379348  25.1131730
 102.5886229  31.5234518  23.7180598 101.4718064  48.1552659  18.3554792
 101.7114663  48.7871183  19.0333811 100.6287261  47.8040699  18.6420151
 112.4544773  39.3030329  23.7935053 111.5671552  38.9656251  23.9161452
 113.0243324  38.5713360  24.0303818  94.1073920  35.6354420  17.1178104
  94.7944960  35.3216151  16.5299119  93.9522049  36.5395785  16.8445356
  98.9108642  30.5244617  21.5463128  98.8266831  29.9170287  20.8113538
  98.0891349  31.0153635  21.5472624 105.9845926  43.9631781  20.7596296
 105.9116098  44.7686753  21.2715601 105.5423319  44.1623747  19.9344317
 105.7735706  43.2003551  14.2699117 104.9903228  43.7425231  14.3637342
 106.4728451  43.7177531  14.6693359 108.4444610  43.8618615  22.9154455
 109.1572582  44.4966080  22.8430356 107.9534638  43.9582481  22.0994456
 103.4956523  41.6113059  23.7360025 104.1965983  42.2449542  23.8889420
 103.0251638  41.9527790  22.9755665 108.2564983  44.2017359  15.6640746
 108.4387378  43.3839015  16.1268498 109.0797969  44.4185051  15.2265636
 107.3445382  34.9077477  28.0478613 106.6686019  34.8071606  28.7180988
 108.1673016  34.7516691  28.5114610  99.0924241  41.1449414  20.6691128
  99.6777678  40.3993102  20.8019032  98.8949080  41.4553370  21.5527792
 101.9462897  44.1800661  15.6853570 101.2773272  44.6646789  15.2017611
 101.8075766  44.4269881  16.5996949  93.6841896  33.7155014  19.3895571
  93.7225996  33.1818605  20.1832689  93.1782189  33.1890219  18.7706548
 106.0868165  46.2144405  22.2836229 106.6386473  46.3776026  23.0485314
 106.4274359  46.8048842  21.6116254 101.0632658  28.5619554  22.8858114
 101.1273985  29.4234385  22.4735511 100.9999779  27.9493556  22.1530472
 100.5384931  30.6342687  26.5331148 101.1656970  30.2519764  27.1468672
  99.6812850  30.4156889  26.8986840 110.9379039  41.0405662  28.1384883
 111.4818943  41.6535620  27.6439838 110.3565884  41.5985240  28.6551896
  97.3150474  32.4419116  12.4649503  97.6103915  31.5329794  12.4116556
  96.4138509  32.4206855  12.1430505 109.2236552  44.1626380  19.2699911
 109.0987692  43.3616120  18.7610857 109.8815644  44.6572573  18.7813881
 100.8444721  30.5175113  18.4477051 100.1231306  31.1311080  18.3084525
 101.6337976  31.0532877  18.3693697 111.2871461  41.9635400  20.8979461
 110.3401796  41.8440751  20.8257788 111.6354234  41.0757898  20.9805723
 103.6471034  27.8529539  24.7217703 104.1705436  28.0991836  25.4844012
 103.4283367  28.6849574  24.3020840 108.2917894  41.7588116  17.0983813
 108.1442857  40.8304824  17.2791383 109.1171388  41.7808207  16.6140889
 111.8952016  42.5816675  18.1848686 112.8198563  42.3759536  18.0473137
 111.7267319  42.3333076  19.0938028 104.8523579  28.7943234  22.4067374
 104.5120400  27.9951047  22.8088053 104.1462586  29.0944945  21.8344207
 103.0278630  32.5711667  18.6686675 102.8823211  32.8851970  19.5610957
 102.5503833  33.1896568  18.1157574 106.7401143  29.9951555  20.7620692
 106.4818921  30.9168626  20.7605023 106.2086184  29.5981990  21.4521156
  97.5024292  35.1117012  21.6074336  96.9577760  35.8876820  21.7394611
  98.3803642  35.4587816  21.4493458  98.2890314  34.2386908  24.5004493
  97.5472050  34.3869543  25.0869124  97.9683058  34.4995174  23.6371243
 106.2333976  43.7802886  24.2984883 106.5421103  43.5352033  25.1707583
 107.0309459  43.9849525  23.8103753 106.2554589  45.9340796  16.5290260
 105.8159579  45.4417174  17.2223116 107.0062705  45.3913763  16.2882335
  98.7346928  42.1252337  16.5314888  99.5604947  41.8256108  16.1513531
  98.3840980  41.3559959  16.9804677 103.7028461  41.4778805  18.6012561
 103.0808470  40.8149510  18.3014789 104.3733328  41.5039937  17.9186209
  96.9355533  40.0438663  17.4903821  96.0987441  39.6160837  17.3087823
  96.9079178  40.2371106  18.4274613 103.7752988  29.9560593  28.1945067
 103.8241144  30.8322716  27.8122837 104.3175502  29.4137986  27.6216711
 114.2607834  40.5001716  27.4746205 113.4703378  40.4825855  26.9350704
 114.0241188  41.0390010  28.2295241 114.3805709  37.3494182  24.7878933
 114.4303714  37.1844190  25.7294456 114.2719632  36.4821442  24.3976814
 103.2641968  40.0282728  12.0771022 103.4130088  40.7118193  11.4237695
 104.0708411  40.0087818  12.5920478 111.6709471  33.3325111  26.1038240
 112.5719334  33.1931575  25.8122238 111.7457446  33.4979565  27.0436417
 106.0052277  30.7091965  24.9491426 105.1355586  31.0025531  24.6774015
 106.2411757  31.2932410  25.6698690 115.8823906  39.7691124  25.0320955
 115.5908714  40.1321105  25.8684416 115.2696037  39.0558132  24.8534287
 101.0194601  36.0547906  13.0832091 100.7740643  35.1510236  13.2812301
 101.1890515  36.0565056  12.1411569 107.0322864  37.9109418  28.3499479
 107.9525874  38.0888017  28.5439525 106.9972447  36.9665463  28.1979178
  96.2505029  33.1048011  17.2752754  95.9307813  32.2513319  16.9827128
  95.7038457  33.3196589  18.0310721 100.0284937  35.8210452  20.9922260
 100.2470946  36.7527560  21.0110294 100.4410711  35.4618427  21.7777064
 104.9012802  31.3943658  30.3825009 104.8009529  32.3438015  30.3137100
 104.6834344  31.0661897  29.5101079  96.1193289  36.7250923  19.2445875
  95.4256761  36.3104875  18.7315830  96.8666280  36.7671459  18.6479294
 104.7644072  34.8240797  29.1990071 104.2811154  35.6241157  29.4053960
 104.8505011  34.8348742  28.2457515  98.0330032  36.6569176  17.1211890
  98.0100720  36.7556864  16.1693773  98.3430668  37.5034327  17.4429056
 100.6917410  38.7145331  21.2358504 101.6460663  38.6829274  21.1688436
 100.4929933  38.2535955  22.0508730 101.2816792  37.2846448  23.8029302
 102.1009681  37.7790526  23.8264139 101.5553599  36.3678416  23.7746870
  99.0467638  44.2564951  18.2528702  98.9122106  43.4965352  17.6866700
  98.6299701  44.9805851  17.7857491 102.2036764  45.1534268  18.4647145
 102.0869148  46.0979700  18.3625835 101.3829210  44.8507830  18.8532944
  96.5351706  31.6184581  24.5021499  97.1810570  31.1083535  24.9908724
  96.3268857  32.3553263  25.0764924 109.0605098  38.6865429  30.0013640
 109.9296258  38.8606081  29.6400275 108.5811850  39.5059846  29.8789369
 103.2291278  45.8062530  21.6803073 104.1318525  45.8386140  21.9969568
 103.0028648  44.8762981  21.6949409 104.9844880  44.5593516  18.3413152
 104.0340511  44.5595378  18.2277524 105.2877367  43.8126251  17.8249187
 100.8749197  28.7652198  28.5996513 101.7380658  28.4089003  28.8099838
 100.3014608  28.4266093  29.2871918 113.3874096  52.2016959  15.3317330
 112.8238961  52.1106896  14.5633618 113.2726491  51.3816864  15.8119823
 110.9338528  53.6968151  18.1701550 111.7259820  53.3558976  17.7547850
 111.1735178  53.8063126  19.0903704 114.7314324  54.2853446  24.2485829
 114.4404190  55.1899077  24.1332495 115.3671309  54.3269974  24.9629898
 113.1416691  50.4228659  17.2772327 112.2167187  50.2904873  17.4850018
 113.3901104  51.2022878  17.7742269 110.5025502  50.0661932  18.1116116
 110.6317883  50.3196411  19.0255527 109.8222953  50.6589640  17.7920771
 114.6724989  60.7359182  14.2106590 114.5949019  61.6867007  14.2895071
 114.0686633  60.3905055  14.8681516 113.6624788  52.7048722  18.9840223
 114.2326146  53.1335990  18.3457707 114.2532900  52.4231307  19.6824408
 114.1549955  47.8712149  27.2301234 113.5248616  48.5528430  27.4636631
 114.0486043  47.7595231  26.2854372 109.4494927  47.5383945  18.1567158
 108.6593981  47.7941474  17.6807269 109.9406175  48.3532283  18.2619199
 111.4009673  47.9028525  15.1150635 110.6040836  48.0147219  15.6334130
 111.1735265  48.2415177  14.2491525 107.7332630  47.7914436  20.5882149
 107.9840669  48.6761446  20.8539725 108.2692179  47.6119037  19.8157241
 113.4330698  42.1732915  29.5926485 113.0397643  41.6199114  30.2674129
 114.2496838  42.4843494  29.9833002 110.3992755  53.6116773  13.5040055
 110.9117276  54.4060024  13.6545619 111.0515468  52.9143064  13.4373656
 112.2087640  56.7282530  15.5862808 112.3854268  57.6500494  15.3983792
 113.0044474  56.4140949  16.0157188 111.4939997  48.7747161  25.4624971
 111.3793512  47.8732419  25.7632070 110.6384514  49.0210858  25.1109788
 113.3318956  58.2460703  21.5873150 113.8826381  58.1177767  20.8150144
 112.4930432  58.5455592  21.2368043 108.3641672  51.9405428  14.2799625
 109.2016894  52.3502436  14.0633333 108.5419940  51.0004870  14.2499819
 108.3867843  49.2796143  14.9510359 108.1892243  48.6865504  14.2261425
 107.8314507  48.9748353  15.6686298 113.7971002  45.3614665  20.4456566
 114.4370381  45.2203424  19.7479529 112.9648532  45.0749178  20.0695168
 114.5731306  54.6617095  16.5591558 115.3671904  54.1667415  16.3574133
 113.8622998  54.1334958  16.1959264 110.7999618  45.3314990  15.2229553
 111.0606435  46.2460323  15.1138713 111.6216790  44.8639432  15.3726165
 112.2724543  46.7452747  22.3928377 112.9447597  46.5370109  21.7441026
 111.4454330  46.5474833  21.9533609 112.6752041  50.0195350  23.1530814
 112.5371839  49.2875589  23.7542353 113.5856964  49.9304250  22.8715002
 114.0163275  46.7180527  24.4610133 113.4800632  46.2671265  25.1131730
 113.4279984  46.8526436  23.7180598 112.3111819  63.4844576  18.3554792
 112.5508417  64.1163100  19.0333811 111.4681015  63.1332616  18.6420151
 104.9467674  50.9646338  17.1178104 105.6338714  50.6508068  16.5299119
 104.7915803  51.8687703  16.8445356 109.7502397  45.8536535  21.5463128
 109.6660585  45.2462204  20.8113538 108.9285103  46.3445553  21.5472624
 114.3350278  56.9404976  23.7360025 115.0359737  57.5741459  23.8889420
 113.8645393  57.2819708  22.9755665 109.9317996  56.4741331  20.6691128
 110.5171433  55.7285019  20.8019032 109.7342834  56.7845288  21.5527792
 112.7856651  59.5092579  15.6853570 112.1167026  59.9938706  15.2017611
 112.6469521  59.7561799  16.5996949 104.5235651  49.0446932  19.3895571
 104.5619750  48.5110522  20.1832689 104.0175943  48.5182137  18.7706548
 111.9026413  43.8911472  22.8858114 111.9667739  44.7526303  22.4735511
 111.8393533  43.2785474  22.1530472 111.3778685  45.9634605  26.5331148
 112.0050724  45.5811682  27.1468672 110.5206604  45.7448806  26.8986840
 108.1544228  47.7711034  12.4649503 108.4497669  46.8621712  12.4116556
 107.2532264  47.7498773  12.1430505 111.6838475  45.8467030  18.4477051
 110.9625061  46.4602998  18.3084525 112.4731731  46.3824795  18.3693697
 114.4864789  43.1821457  24.7217703 115.0099190  43.4283753  25.4844012
 114.2677122  44.0141492  24.3020840 115.6917334  44.1235152  22.4067374
 115.3514154  43.3242965  22.8088053 114.9856340  44.4236863  21.8344207
 113.8672384  47.9003585  18.6686675 113.7216965  48.2143888  19.5610957
 113.3897588  48.5188485  18.1157574 108.3418046  50.4408929  21.6074336
 107.7971515  51.2168737  21.7394611 109.2197396  50.7879734  21.4493458
 109.1284068  49.5678826  24.5004493 108.3865804  49.7161461  25.0869124
 108.8076813  49.8287091  23.6371243 109.5740682  57.4544254  16.5314888
 110.3998702  57.1548026  16.1513531 109.2234734  56.6851877  16.9804677
 114.5422215  56.8070723  18.6012561 113.9202224  56.1441428  18.3014789
 115.2127082  56.8331854  17.9186209 107.7749287  55.3730581  17.4903821
 106.9381195  54.9452755  17.3087823 107.7472932  55.5663024  18.4274613
 114.6146743  45.2852511  28.1945067 114.6634898  46.1614633  27.8122837
 115.1569257  44.7429904  27.6216711 114.1035722  55.3574646  12.0771022
 114.2523842  56.0410110  11.4237695 114.9102166  55.3379736  12.5920478
 111.8588355  51.3839824  13.0832091 111.6134397  50.4802153  13.2812301
 112.0284270  51.3856974  12.1411569 107.0898784  48.4339929  17.2752754
 106.7701568  47.5805237  16.9827128 106.5432212  48.6488507  18.0310721
 110.8678691  51.1502370  20.9922260 111.0864701  52.0819478  21.0110294
 111.2804465  50.7910344  21.7777064 115.7406556  46.7235576  30.3825009
 115.6403283  47.6729933  30.3137100 115.5228099  46.3953815  29.5101079
 106.9587044  52.0542840  19.2445875 106.2650515  51.6396793  18.7315830
 107.7060035  52.0963377  18.6479294 115.6037827  50.1532714  29.1990071
 115.1204908  50.9533075  29.4053960 115.6898766  50.1640659  28.2457515
 108.8723786  51.9861094  17.1211890 108.8494474  52.0848781  16.1693773
 109.1824423  52.8326245  17.4429056 111.5311164  54.0437249  21.2358504
 112.4854418  54.0121191  21.1688436 111.3323688  53.5827873  22.0508730
 112.1210546  52.6138365  23.8029302 112.9403435  53.1082444  23.8264139
 112.3947354  51.6970333  23.7746870 109.8861393  59.5856869  18.2528702
 109.7515861  58.8257270  17.6866700 109.4693455  60.3097769  17.7857491
 113.0430519  60.4826186  18.4647145 112.9262903  61.4271618  18.3625835
 112.2222965  60.1799747  18.8532944 107.3745460  46.9476499  24.5021499
 108.0204324  46.4375453  24.9908724 107.1662612  47.6845181  25.0764924
 114.0685033  61.1354448  21.6803073 114.9712280  61.1678058  21.9969568
 113.8422403  60.2054899  21.6949409 111.7142951  44.0944116  28.5996513
 112.5774413  43.7380921  28.8099838 111.1408362  43.7558011  29.2871918
 115.3629405  64.3738849  19.3895571 115.4013505  63.8402440  20.1832689
 114.8569698  63.8474055  18.7706548   1.4839669  51.2227938  96.9085567
   0.7303377  50.6535336  96.7529572   1.6187210  51.1890603  97.8556202
   1.8946084  51.3803548  99.6405812   2.6249472  51.1188836 100.2013515
   1.2853029  50.6432270  99.6807880   1.4866267  65.7245978  99.0587071
   2.1244677  65.6052725  98.3550412   1.3687110  66.6726822  99.1175024
   1.0407535  63.4497432  96.1340280   1.8270625  63.0316855  95.7830697
   1.3046240  64.3543524  96.3021928   1.2117613  68.8870282  90.8328936
   0.5763446  68.9604909  91.5449841   0.8815019  69.4763881  90.1548016
   6.4415963  63.3872665  97.0373258   7.1741134  62.8171882  97.2711088
   5.6855318  62.9994265  97.4779764   3.9641383  57.0994239 101.4967867
   3.6324708  57.9689650 101.2729082   3.3686996  56.7830523 102.1761897
   3.8570046  61.8189325  98.5761217   2.9486924  61.7504734  98.2819978
   3.8057642  62.2961270  99.4043042   5.7231693  60.0205764 100.3539091
   5.0806073  60.3138297  99.7078885   5.2186621  59.9058684 101.1592287
   3.3771856  63.7668937  91.0424950   4.2889712  63.9996324  90.8672647
   2.8681503  64.3505981  90.4800028   1.9841439  68.7494755  98.4338531
   1.3550301  68.9140469  97.7314599   1.5967101  69.1636365  99.2049495
   5.8630670  69.6849193  95.7882895   5.1781709  70.0648094  95.2379928
   5.9474520  70.2944520  96.5214843  12.3233423  66.5519856  96.9085567
  11.5697131  65.9827254  96.7529572  12.4580964  66.5182520  97.8556202
   1.0624515  54.9463820 101.1139180   0.7188784  55.8365462 101.0378291
   1.4303477  54.7565478 100.2508765   1.0274797  64.9372431  89.6211615
   0.5121421  65.7077036  89.8600003   0.7552106  64.2637567  90.2444677
   6.0009072  67.6904786  91.5564789   5.2238514  67.3515945  91.1119951
   6.6800553  67.6957409  90.8819754   0.8161101  62.8099523  91.4471397
   0.5111236  63.1245673  92.2981540   1.7691543  62.8880943  91.4898730
   4.2400378  67.1638767  98.2131397   3.5824053  67.8538029  98.3011525
   5.0440778  67.5535199  98.5565383   3.0505837  65.5183140  96.2635339
   3.5637719  66.1513132  96.7657048   3.7007061  64.9184335  95.8978699
   3.8167633  70.4989141  94.3914481   3.3629961  69.6580051  94.4479672
   3.1861600  71.1350540  94.7289261   2.7600553  61.4281127  95.6215149
   2.0223310  60.9158514  95.9525391   3.0127327  60.9881509  94.8098426
   2.2600573  72.3365638  95.3264299   2.5523547  72.8970695  94.6076665
   2.7699193  72.6294199  96.0817458   2.8612180  54.2057379  96.2156918
   3.1671057  53.3454743  95.9282833   3.5864785  54.7975000  96.0155912
   6.3997569  66.7048493  94.0187711   6.2615467  66.8950089  93.0908900
   6.0433787  67.4667875  94.4755762   6.4266948  68.7725020  99.0298982
   6.8603455  68.6800309  99.8782036   7.1398529  68.7482520  98.3918998
   7.2882498  68.8148720 101.5631868   7.4818388  69.7194531 101.8091143
   7.1883116  68.3556139 102.3970453   2.4035681  67.2875677  87.5543450
   1.7864852  66.5622505  87.4576502   1.9352170  68.0485037  87.2110524
   8.5424561  65.3722387  98.2079771   8.5314437  66.2547102  97.8373705
   7.6741940  65.0193938  98.0134309   1.7724584  68.4253708  94.1399903
   0.8380863  68.5455171  93.9704608   1.9501253  67.5226175  93.8759913
   5.1597136  64.2671028  94.6749938   5.6257588  65.0999019  94.6010240
   5.6104636  63.8016009  95.3795196   3.2273367  70.6114849  91.6736090
   3.5033211  70.4971444  92.5829964   2.3577865  70.2132334  91.6348263
   3.1313798  56.6351615  98.7140839   2.2176878  56.8655842  98.8823046
   3.5606900  56.7190059  99.5654871   2.9020257  64.8241507 101.2140733
   2.2491707  65.0717414 100.5593186   3.2800637  64.0105645 100.8803210
   3.5014464  73.2400516  97.8376843   4.4261011  73.0343377  97.7001294
   3.3329767  72.9916917  98.7466185   3.2909780  73.7586183  93.1938935
   3.4646657  73.1932606  92.4412787   3.7838671  74.5587078  93.0118425
   9.1449171  66.5222606  94.8129234   9.5880317  65.7729931  94.4148358
   8.2675681  66.5132743  94.4302966   4.2784952  73.0752948  90.2935833
   4.9735857  73.6959640  90.5123148   4.6208102  72.2248299  90.5688211
   6.1776375  70.5252653  91.8223164   6.7027699  70.8639926  91.0972484
   6.0898728  69.5899668  91.6386298   8.6882036  67.9927844  97.2051682
   9.5228927  68.4317649  97.3689242   8.8241164  67.5166498  96.3859928
   5.7373542  65.5507579 103.1529170   6.2127663  65.7435226 102.3448021
   4.8139107  65.6066765 102.9072553   0.5666352  54.0055705  97.6385900
   0.8468106  53.3378894  98.2646327   1.3516959  54.1984801  97.1260564
   4.4375211  62.4273339 101.3857475   5.3892633  62.5271437 101.4069699
   4.2678661  61.6351608 101.8955560   2.4589590  59.5128923 101.5716876
   1.8639522  59.7933935 100.8763365   2.1739287  60.0022824 102.3433617
   1.5897080  73.4651849  90.3319509   2.5227754  73.3997411  90.5352384
   1.5020293  74.3008116  89.8734041   4.2185097  72.7817720  87.2923456
   4.1398729  72.4477583  88.1859214   5.0394764  73.2739488  87.2914929
   6.9163288  65.6479459 100.4999775   6.8839608  64.7095460 100.6859459
   7.5263912  65.7263496  99.7665600   7.0657777  62.4390503 100.5458058
   6.5496825  61.6548959 100.3587987   7.9497725  62.1109219 100.7104578
   4.7268504  56.1831518  96.5053871   4.5293325  55.8746606  97.3897203
   5.3368209  56.9093157  96.6351801  12.7339838  66.7095466  99.6405812
  13.4643227  66.4480754 100.2013515  12.1246784  65.9724188  99.6807880
  10.8155135  64.8503329 100.2380263  10.0888299  64.7159293  99.6296755
  10.4002422  65.1580157 101.0436981   0.4842150  56.0640425  94.2550402
   1.0373189  56.4835878  94.9140425   0.7212237  55.1376173  94.2973358
   3.8620957  58.1740950  93.7629066   3.2819626  58.8325754  93.3807119
   3.5956890  57.3518295  93.3516484   2.3124524  57.5746008  95.9650387
   2.8124302  57.6862542  95.1564706   2.9560132  57.2707061  96.6051195
   2.6445835  60.3341041  92.8185415   1.7571690  60.6190691  92.6005609
   3.0599825  60.1734804  91.9712692   5.9960372  60.3587562  96.5339754
   6.7720762  60.8484014  96.8064371   5.2708506  60.7845616  96.9911623
   8.4332930  61.0715181  97.5913695   9.0277421  60.8310917  96.8807003
   8.5059514  60.3522311  98.2187231   1.7889049  70.0985715  86.9133435
   2.4924899  70.3035718  87.5291090   1.0651698  70.6662477  87.1782518
   2.6186859  65.8495576  93.0335705   2.5622061  66.3064128  92.1943337
   3.1715202  65.0886261  92.8558548   6.4291665  61.6385308  93.8585824
   6.1728599  61.2381944  94.6894032   5.8044533  62.3529102  93.7335963
  10.7404003  64.3781382  96.3657116  10.1803561  64.4474571  97.1388678
  10.1347506  64.2022366  95.6456612   3.6975746  70.5368244  88.9631895
   4.5321350  70.1049443  88.7809370   3.5360089  70.3650258  89.8908789
   3.3521638  67.0400358  90.3288234   3.2970442  66.8744629  89.3876678
   2.7267694  67.7476391  90.4850424  12.3260021  81.0537896  99.0587071
  12.9638431  80.9344643  98.3550412  12.2080864  82.0018739  99.1175024
   9.1349728  81.0065324  98.9948596   8.7968239  80.8906388  98.1069131
  10.0039496  80.6056489  98.9749602  10.5736102  86.5271768  90.2959952
   9.9224082  87.1125848  89.9093966  11.3680465  87.0577963  90.3554989
   4.4991729  83.6160905  90.6947086   5.2722605  83.0689892  90.5559962
   4.8517128  84.4805154  90.9061548   6.8358007  79.7753571  88.3265536
   7.0883528  79.2535092  87.5648999   5.8982566  79.6119716  88.4292220
  11.8801290  78.7789349  96.1340280  12.6664379  78.3608773  95.7830697
  12.1439994  79.6835442  96.3021928  12.0511367  84.2162200  90.8328936
  11.4157200  84.2896826  91.5449841  11.7208774  84.8055799  90.1548016
  17.2809717  78.7164583  97.0373258  18.0134889  78.1463799  97.2711088
  16.5249073  78.3286183  97.4779764   6.5554296  81.6781677  90.5289911
   6.4390554  81.0026580  91.1970996   6.6656556  81.1914051  89.7122064
   8.8985837  81.1391824  94.2336600   8.5344044  80.6122445  94.9449522
   9.7552953  80.7490293  94.0603086  14.8035137  72.4286157 101.4967867
  14.4718462  73.2981568 101.2729082  14.2080751  72.1122441 102.1761897
   8.5391324  76.1681724  89.2297949   8.7065726  77.0361960  89.5968420
   8.3488493  76.3309005  88.3059238  14.6963801  77.1481243  98.5761217
  13.7880678  77.0796651  98.2819978  14.6451396  77.6253188  99.4043042
   8.5180545  78.6239381  90.2144616   8.3980170  79.0696432  91.0530096
   7.8233133  78.9724699  89.6558154  16.5625447  75.3497681 100.3539091
  15.9199827  75.6430214  99.7078885  16.0580376  75.2350602 101.1592287
  14.2165611  79.0960854  91.0424950  15.1283467  79.3288241  90.8672647
  13.7075258  79.6797899  90.4800028  12.8235193  84.0786673  98.4338531
  12.1944056  84.2432387  97.7314599  12.4360855  84.4928282  99.2049495
  16.7024425  85.0141111  95.7882895  16.0175463  85.3940012  95.2379928
  16.7868274  85.6236437  96.5214843  11.5601586  75.2718890  99.2914811
  10.6986065  75.5700144  99.5831548  11.5864020  75.4889289  98.3595843
   8.3763155  83.8161081  95.6988616   8.8401500  84.0948784  94.9093239
   8.1119953  82.9144526  95.5161707   7.3132041  79.9384233  92.5078182
   8.0156084  80.3905277  92.9752108   6.9812669  79.2968052  93.1358075
  23.1627178  81.8811774  96.9085567  22.4090886  81.3119172  96.7529572
  23.2974719  81.8474438  97.8556202   8.5525806  86.7525176  92.5840287
   8.4171480  87.5976712  93.0125135   9.0935618  86.9544454  91.8206221
  11.9018269  70.2755738 101.1139180  11.5582539  71.1657380 101.0378291
  12.2697232  70.0857395 100.2508765  11.8668552  80.2664349  89.6211615
  11.3515175  81.0368954  89.8600003  11.5945860  79.5929485  90.2444677
   9.4515663  75.1114050  94.6796854   8.5957259  74.7220900  94.5002492
   9.8642615  75.1906011  93.8196639  10.9814810  72.6460393  99.0788413
  10.4779605  72.6090528  98.2656219  11.2745416  73.5553136  99.1385070
   7.2257695  72.7299123  98.0854595   8.0910692  72.5341931  97.7260485
   7.2935204  72.5009474  99.0123952  16.8402826  83.0196704  91.5564789
  16.0632269  82.6807863  91.1119951  17.5194307  83.0249327  90.8819754
  11.6554855  78.1391441  91.4471397  11.3504991  78.4537590  92.2981540
  12.6085297  78.2172861  91.4898730  10.1001287  84.2981664  93.0964351
   9.5722648  83.5634424  92.7837588   9.5988790  85.0756341  92.8504319
  15.0794133  82.4930685  98.2131397  14.4217807  83.1829946  98.3011525
  15.8834532  82.8827117  98.5565383   4.8320015  74.9601331  95.4570962
   5.4063766  74.7376512  94.7244155   5.4190997  75.0290025  96.2099563
  13.8899592  80.8475058  96.2635339  14.4031473  81.4805049  96.7657048
  14.5400816  80.2476253  95.8978699   5.1589602  76.9905792  89.4766847
   4.3226914  77.3280478  89.7976122   5.0194371  76.8554771  88.5393984
   7.1342682  71.8342580  94.1846031   6.4807095  71.5191597  93.5602646
   7.0923156  71.2118320  94.9105854   8.2453887  82.1161875  86.0999324
   7.3380949  81.8851128  86.2990473   8.7424919  81.3199494  86.2873305
  11.1521966  90.8259382  89.0196010  10.4783665  91.1291079  89.6280968
  11.5387788  91.6288462  88.6701467  10.3680423  78.3224513  98.5093679
   9.4502984  78.5439460  98.3515367  10.7840566  78.3970824  97.6505386
  11.1515470  79.7215929  93.6396359  11.8987289  80.2337326  93.3303481
  11.4207060  79.3999982  94.5000753   9.4242121  82.2174470  90.6223314
   8.5153340  81.9333502  90.7195783   9.4537204  82.6373548  89.7626620
  14.6561388  85.8281059  94.3914481  14.2023715  84.9871969  94.4479672
  14.0255355  86.4642457  94.7289261  13.5994308  76.7573045  95.6215149
  12.8617064  76.2450431  95.9525391  13.8521081  76.3173427  94.8098426
  13.0994327  87.6657556  95.3264299  13.3917302  88.2262613  94.6076665
  13.6092948  87.9586117  96.0817458  13.7005935  69.5349297  96.2156918
  14.0064812  68.6746660  95.9282833  14.4258540  70.1266917  96.0155912
   7.9727015  79.8303090  96.7233109   8.0275624  78.8776927  96.6475586
   7.1618217  79.9862529  97.2074407   9.1218208  83.7583213  87.9611392
   8.6837638  83.0419072  87.5017030   9.8628649  83.9859328  87.3996484
   5.9119375  78.4480150  94.4823488   5.0987240  78.7474320  94.8888680
   6.4078369  78.0535839  95.1997970  17.2391323  82.0340410  94.0187711
  17.1009222  82.2242006  93.0908900  16.8827542  82.7959793  94.4755762
  17.2660703  84.1016937  99.0298982  17.6997209  84.0092226  99.8782036
  17.9792283  84.0774438  98.3918998   2.4876517  79.4644018  92.2879468
   1.5574105  79.4028473  92.5049430   2.5833989  78.9419970  91.4916109
   2.4062066  75.9898830  94.8757710   2.6668883  76.9044164  94.7666870
   3.2279238  75.5223273  95.0254322  18.1276252  84.1440638 101.5631868
  18.3212142  85.0486448 101.8091143  18.0276870  83.6848057 102.3970453
   9.3513181  90.9939054  91.2343089   9.5264937  90.5227097  92.0488712
   8.6645969  91.6204820  91.4624350  13.2429436  82.6167595  87.5543450
  12.6258607  81.8914423  87.4576502  12.7745924  83.3776955  87.2110524
   5.0327982  76.8353019  86.6764754   4.1557448  76.7141820  86.3127001
   5.5085735  76.0439097  86.4243643  11.5288558  74.9973939  96.5661480
  12.0257258  74.2443901  96.2462550  10.7575540  75.0338256  96.0004689
  19.3818315  80.7014304  98.2079771  19.3708192  81.5839020  97.8373705
  18.5135695  80.3485855  98.0134309  12.6118339  83.7545626  94.1399903
  11.6774617  83.8747089  93.9704608  12.7895007  82.8518093  93.8759913
   8.1123527  77.1391322  96.2933165   7.7421314  76.5862362  96.9814070
   8.6082619  76.5349455  95.7408165  15.9990890  79.5962945  94.6749938
  16.4651342  80.4290937  94.6010240  16.4498391  79.1307927  95.3795196
  14.0667121  85.9406767  91.6736090  14.3426965  85.8263361  92.5829964
  13.1971620  85.5424252  91.6348263  13.9707553  71.9643532  98.7140839
  13.0570633  72.1947759  98.8823046  14.4000654  72.0481976  99.5654871
  13.7414011  80.1533424 101.2140733  13.0885462  80.4009332 100.5593186
  14.1194391  79.3397563 100.8803210  11.0363351  89.1161303  92.5783952
  11.5651117  88.6053757  91.9654114  11.2991570  88.8003833  93.4429485
   1.4894517  76.1108972  92.2416985   1.1607223  75.2306351  92.0592091
   1.8433888  76.0556641  93.1293374   4.6036340  76.3981942  92.6092463
   4.9432413  76.9267863  91.8871071   5.0508461  76.7362348  93.3851029
  14.3408218  88.5692433  97.8376843  15.2654765  88.3635295  97.7001294
  14.1723521  88.3208835  98.7466185   7.9496253  71.8668305 100.5122854
   8.7722322  71.3928783 100.3901744   8.1934317  72.6458789 101.0121540
   6.5904488  74.8956563  90.8085755   7.3112850  75.2737816  90.3049472
   5.9669792  75.6145440  90.9120733  10.7335610  75.6001712  91.7444088
  10.9499225  76.4826350  91.4432916  10.2529678  75.2087926  91.0149730
   7.3331215  75.5489974  98.3695722   7.3192784  74.6531067  98.0328020
   8.0503643  75.5560637  99.0034008   9.1857345  75.9827314 100.4148849
   8.9275123  76.9044384 100.4133180   8.6542386  75.5857748 101.1049313
  14.1303534  89.0878101  93.1938935  14.3040412  88.5224523  92.4412787
  14.6232425  89.8878996  93.0118425   6.7368111  74.4304354  93.6383292
   6.8584022  73.5021000  93.8374179   6.4470153  74.4443040  92.7261607
   9.6059301  72.1159264  96.7750012   9.6280998  72.1798597  95.8201991
  10.0227360  71.2763773  96.9690518  19.9842925  81.8514524  94.8129234
  20.4274071  81.1021849  94.4148358  19.1069436  81.8424660  94.4302966
  15.1178707  88.4044865  90.2935833  15.8129611  89.0251558  90.5123148
  15.4601857  87.5540217  90.5688211  17.0170130  85.8544571  91.8223164
  17.5421454  86.1931844  91.0972484  16.9292482  84.9191586  91.6386298
   5.7098170  86.0158487  91.7299179   5.8586290  86.6993951  91.0765852
   6.5164613  85.9963577  92.2448635  19.5275790  83.3219762  97.2051682
  20.3622681  83.7609566  97.3689242  19.6634919  82.8458415  96.3859928
  16.5767296  80.8799497 103.1529170  17.0521418  81.0727143 102.3448021
  15.6532861  80.9358683 102.9072553   3.4650803  82.0423664  92.7360248
   3.2196845  81.1385994  92.9340458   3.6346717  82.0440815  91.7939726
  11.1547512  72.9147341 102.1185004  11.6729456  73.6508367 101.7931492
  10.8002645  73.2211334 102.9531763   2.7346450  77.7752022  90.2346409
   2.0415695  77.8496377  89.5786445   2.4898202  77.0112365  90.7567926
  11.4060107  69.3347623  97.6385900  11.6861860  68.6670812  98.2646327
  12.1910714  69.5276719  97.1260564   9.2093575  88.5106617  89.2010927
   8.6367542  89.1296804  88.7481398   9.7826369  89.0605979  89.7350848
  15.2768965  77.7565257 101.3857475  16.2286388  77.8563355 101.4069699
  15.1072415  76.9643526 101.8955560  13.2983344  74.8420840 101.5716876
  12.7033277  75.1225853 100.8763365  13.0133041  75.3314741 102.3433617
  12.4290835  88.7943767  90.3319509  13.3621508  88.7289329  90.5352384
  12.3414048  89.6300034  89.8734041  15.0578852  88.1109637  87.2923456
  14.9792483  87.7769501  88.1859214  15.8788518  88.6031405  87.2914929
  17.7557043  80.9771377 100.4999775  17.7233363  80.0387378 100.6859459
  18.3657666  81.0555413  99.7665600   9.5940374  79.8467430  86.5426979
  10.5399478  79.7173638  86.6115397   9.2154619  79.1082092  87.0196407
  17.9051531  77.7682420 100.5458058  17.3890580  76.9840877 100.3587987
  18.7891480  77.4401137 100.7104578  15.5662258  71.5123436  96.5053871
  15.3687079  71.2038524  97.3897203  16.1761964  72.2385075  96.6351801
  23.5733593  82.0387384  99.6405812  24.3036981  81.7772672 100.2013515
  22.9640538  81.3016106  99.6807880  21.6548890  80.1795246 100.2380263
  20.9282053  80.0451211  99.6296755  21.2396177  80.4872075 101.0436981
   7.7783291  77.7717406  86.4781864   6.8714746  77.4750519  86.5544578
   8.0559272  77.4747224  85.6116150   9.3945357  72.3154296  92.6326106
   8.5846085  71.9701381  93.0081352  10.0829773  72.0061840  93.2213717
  11.3235905  71.3932343  94.2550402  11.8766943  71.8127796  94.9140425
  11.5605991  70.4668091  94.2973358   6.5482075  74.6304341  86.6193843
   7.4101239  74.9559240  86.8789661   6.7332420  73.8435837  86.1066909
  14.7014712  73.5032868  93.7629066  14.1213381  74.1617672  93.3807119
  14.4350645  72.6810212  93.3516484  13.1518278  72.9037926  95.9650387
  13.6518057  73.0154460  95.1564706  13.7953886  72.5998978  96.6051195
  13.4839590  75.6632958  92.8185415  12.5965445  75.9482609  92.6005609
  13.8993579  75.5026722  91.9712692  16.8354126  75.6879479  96.5339754
  17.6114516  76.1775932  96.8064371  16.1102260  76.1137533  96.9911623
  19.2726685  76.4007098  97.5913695  19.8671175  76.1602834  96.8807003
  19.3453268  75.6814229  98.2187231  12.6282803  85.4277633  86.9133435
  13.3318654  85.6327635  87.5291090  11.9045452  85.9954395  87.1782518
  13.4580614  81.1787494  93.0335705  13.4015815  81.6356046  92.1943337
  14.0108956  80.4178179  92.8558548  17.2685420  76.9677226  93.8585824
  17.0122354  76.5673862  94.6894032  16.6438288  77.6821020  93.7335963
  21.5797757  79.7073299  96.3657116  21.0197315  79.7766489  97.1388678
  20.9741261  79.5314284  95.6456612  14.5369501  85.8660162  88.9631895
  15.3715105  85.4341361  88.7809370  14.3753844  85.6942176  89.8908789
  14.1915393  82.3692275  90.3288234  14.1364197  82.2036547  89.3876678
  13.5661448  83.0768308  90.4850424   7.5011518  71.8700384  89.9073552
   7.4890188  72.8142224  90.0641823   8.3934940  71.6870530  89.6133014
  11.3163638  68.4643161  94.1619489  10.5496034  67.9101648  94.3076172
  11.7274343  68.5365030  95.0233641  23.1653776  96.3829813  99.0587071
  23.8032186  96.2636561  98.3550412  23.0474619  97.3310657  99.1175024
  19.9743482  96.3357241  98.9948596  19.6361994  96.2198306  98.1069131
  20.8433250  95.9348406  98.9749602  21.4129857 101.8563685  90.2959952
  20.7617836 102.4417766  89.9093966  22.2074219 102.3869880  90.3554989
  15.3385484  98.9452823  90.6947086  16.1116360  98.3981810  90.5559962
  15.6910883  99.8097072  90.9061548  17.6751762  95.1045489  88.3265536
  17.9277282  94.5827010  87.5648999  16.7376321  94.9411634  88.4292220
  22.7195044  94.1081267  96.1340280  23.5058134  93.6900690  95.7830697
  22.9833749  95.0127359  96.3021928  22.8905122  99.5454117  90.8328936
  22.2550955  99.6188744  91.5449841  22.5602528 100.1347716  90.1548016
  28.1203472  94.0456500  97.0373258  28.8528643  93.4755717  97.2711088
  27.3642827  93.6578101  97.4779764  17.3948050  97.0073595  90.5289911
  17.2784308  96.3318498  91.1970996  17.5050310  96.5205969  89.7122064
  19.7379591  96.4683742  94.2336600  19.3737798  95.9414363  94.9449522
  20.5946707  96.0782211  94.0603086  25.6428892  87.7578074 101.4967867
  25.3112217  88.6273485 101.2729082  25.0474505  87.4414358 102.1761897
  19.3785078  91.4973641  89.2297949  19.5459481  92.3653878  89.5968420
  19.1882247  91.6600923  88.3059238  25.5357555  92.4773161  98.5761217
  24.6274433  92.4088569  98.2819978  25.4845151  92.9545105  99.4043042
  19.3574299  93.9531299  90.2144616  19.2373924  94.3988350  91.0530096
  18.6626887  94.3016617  89.6558154  27.4019202  90.6789599 100.3539091
  26.7593582  90.9722132  99.7078885  26.8974130  90.5642519 101.1592287
  25.0559365  94.4252772  91.0424950  25.9677221  94.6580159  90.8672647
  24.5469012  95.0089816  90.4800028  23.6628948  99.4078591  98.4338531
  23.0337810  99.5724305  97.7314599  23.2754610  99.8220200  99.2049495
  27.5418179 100.3433028  95.7882895  26.8569218 100.7231930  95.2379928
  27.6262029 100.9528355  96.5214843  22.3995340  90.6010808  99.2914811
  21.5379819  90.8992062  99.5831548  22.4257775  90.8181207  98.3595843
  19.2156909  99.1452999  95.6988616  19.6795255  99.4240702  94.9093239
  18.9513708  98.2436443  95.5161707  18.1525795  95.2676151  92.5078182
  18.8549839  95.7197195  92.9752108  17.8206424  94.6259970  93.1358075
  34.0020932  97.2103691  96.9085567  33.2484640  96.6411089  96.7529572
  34.1368473  97.1766356  97.8556202  19.3919560 102.0817094  92.5840287
  19.2565235 102.9268629  93.0125135  19.9329373 102.2836371  91.8206221
  22.7412024  85.6047656 101.1139180  22.3976293  86.4949297 101.0378291
  23.1090986  85.4149313 100.2508765  22.7062306  95.5956267  89.6211615
  22.1908930  96.3660871  89.8600003  22.4339615  94.9221403  90.2444677
  20.2909417  90.4405967  94.6796854  19.4351014  90.0512818  94.5002492
  20.7036369  90.5197928  93.8196639  21.8208564  87.9752311  99.0788413
  21.3173360  87.9382446  98.2656219  22.1139171  88.8845053  99.1385070
  18.0651450  88.0591040  98.0854595  18.9304447  87.8633849  97.7260485
  18.1328959  87.8301392  99.0123952  27.6796581  98.3488621  91.5564789
  26.9026023  98.0099781  91.1119951  28.3588062  98.3541244  90.8819754
  22.4948610  93.4683359  91.4471397  22.1898745  93.7829508  92.2981540
  23.4479052  93.5464779  91.4898730  20.9395041  99.6273582  93.0964351
  20.4116403  98.8926342  92.7837588  20.4382544 100.4048258  92.8504319
  25.9187887  97.8222603  98.2131397  25.2611562  98.5121864  98.3011525
  26.7228287  98.2119034  98.5565383  15.6713769  90.2893248  95.4570962
  16.2457521  90.0668430  94.7244155  16.2584751  90.3581943  96.2099563
  24.7293346  96.1766975  96.2635339  25.2425228  96.8096967  96.7657048
  25.3794570  95.5768171  95.8978699  15.9983356  92.3197709  89.4766847
  15.1620668  92.6572396  89.7976122  15.8588126  92.1846689  88.5393984
  17.9736437  87.1634497  94.1846031  17.3200849  86.8483514  93.5602646
  17.9316911  86.5410238  94.9105854  19.0847642  97.4453792  86.0999324
  18.1774703  97.2143046  86.2990473  19.5818674  96.6491412  86.2873305
  21.2074177  93.6516431  98.5093679  20.2896738  93.8731378  98.3515367
  21.6234321  93.7262741  97.6505386  21.9909225  95.0507846  93.6396359
  22.7381044  95.5629244  93.3303481  22.2600814  94.7291899  94.5000753
  20.2635875  97.5466387  90.6223314  19.3547094  97.2625420  90.7195783
  20.2930959  97.9665466  89.7626620  25.4955142 101.1572977  94.3914481
  25.0417470 100.3163887  94.4479672  24.8649109 101.7934375  94.7289261
  24.4388062  92.0864963  95.6215149  23.7010819  91.5742349  95.9525391
  24.6914836  91.6465344  94.8098426  23.9388082 102.9949473  95.3264299
  24.2311056 103.5554530  94.6076665  24.4486702 103.2878034  96.0817458
  24.5399689  84.8641215  96.2156918  24.8458566  84.0038578  95.9282833
  25.2652294  85.4558835  96.0155912  18.8120769  95.1595008  96.7233109
  18.8669379  94.2068844  96.6475586  18.0011971  95.3154447  97.2074407
  19.9611963  99.0875131  87.9611392  19.5231393  98.3710990  87.5017030
  20.7022404  99.3151246  87.3996484  16.7513129  93.7772068  94.4823488
  15.9380995  94.0766238  94.8888680  17.2472123  93.3827756  95.1997970
  28.0785078  97.3632328  94.0187711  27.9402976  97.5533924  93.0908900
  27.7221296  98.1251711  94.4755762  28.1054457  99.4308855  99.0298982
  28.5390964  99.3384144  99.8782036  28.8186038  99.4066355  98.3918998
  13.3270271  94.7935935  92.2879468  12.3967859  94.7320391  92.5049430
  13.4227743  94.2711888  91.4916109  13.2455820  91.3190748  94.8757710
  13.5062637  92.2336081  94.7666870  14.0672993  90.8515191  95.0254322
  28.9670007  99.4732556 101.5631868  29.1605897 100.3778366 101.8091143
  28.8670625  99.0139975 102.3970453  24.0823190  97.9459512  87.5543450
  23.4652361  97.2206341  87.4576502  23.6139679  98.7068873  87.2110524
  15.8721736  92.1644937  86.6764754  14.9951203  92.0433738  86.3127001
  16.3479489  91.3731015  86.4243643  22.3682313  90.3265857  96.5661480
  22.8651012  89.5735819  96.2462550  21.5969294  90.3630173  96.0004689
  30.2212070  96.0306222  98.2079771  30.2101946  96.9130938  97.8373705
  29.3529449  95.6777773  98.0134309  23.4512093  99.0837544  94.1399903
  22.5168372  99.2039006  93.9704608  23.6288762  98.1810011  93.8759913
  18.9517281  92.4683240  96.2933165  18.5815069  91.9154280  96.9814070
  19.4476374  91.8641373  95.7408165  26.8384645  94.9254863  94.6749938
  27.3045097  95.7582855  94.6010240  27.2892145  94.4599845  95.3795196
  24.9060876 101.2698684  91.6736090  25.1820720 101.1555279  92.5829964
  24.0365374 100.8716169  91.6348263  24.8101307  87.2935450  98.7140839
  23.8964387  87.5239677  98.8823046  25.2394409  87.3773894  99.5654871
  24.5807766  95.4825342 101.2140733  23.9279216  95.7301250 100.5593186
  24.9588146  94.6689480 100.8803210  21.8757105 104.4453220  92.5783952
  22.4044872 103.9345675  91.9654114  22.1385325 104.1295751  93.4429485
  10.6000430  93.7586792  92.1177660  10.8953871  92.8497470  92.0644713
   9.6988466  93.7374531  91.7958662  12.3288272  91.4400890  92.2416985
  12.0000978  90.5598269  92.0592091  12.6827642  91.3848558  93.1293374
  15.4430095  91.7273859  92.6092463  15.7826167  92.2559781  91.8871071
  15.8902215  92.0654266  93.3851029  25.1801972 103.8984351  97.8376843
  26.1048520 103.6927212  97.7001294  25.0117276 103.6500752  98.7466185
  18.7890008  87.1960223 100.5122854  19.6116077  86.7220701 100.3901744
  19.0328071  87.9750706 101.0121540  17.4298242  90.2248481  90.8085755
  18.1506605  90.6029734  90.3049472  16.8063546  90.9437358  90.9120733
  21.5729365  90.9293630  91.7444088  21.7892979  91.8118268  91.4432916
  21.0923432  90.5379843  91.0149730  18.1724969  90.8781891  98.3695722
  18.1586538  89.9822985  98.0328020  18.8897397  90.8852555  99.0034008
  20.0251100  91.3119231 100.4148849  19.7668878  92.2336302 100.4133180
  19.4936140  90.9149666 101.1049313  24.9697289 104.4170019  93.1938935
  25.1434166 103.8516441  92.4412787  25.4626180 105.2170913  93.0118425
  17.5761865  89.7596272  93.6383292  17.6977776  88.8312918  93.8374179
  17.2863908  89.7734958  92.7261607  20.4453056  87.4451182  96.7750012
  20.4674752  87.5090515  95.8201991  20.8621115  86.6055691  96.9690518
  30.8236680  97.1806442  94.8129234  31.2667826  96.4313767  94.4148358
  29.9463190  97.1716578  94.4302966  25.9572461 103.7336783  90.2935833
  26.6523366 104.3543476  90.5123148  26.2995611 102.8832134  90.5688211
  27.8563884 101.1836489  91.8223164  28.3815208 101.5223761  91.0972484
  27.7686237 100.2483504  91.6386298  16.5491924 101.3450404  91.7299179
  16.6980044 102.0285869  91.0765852  17.3558368 101.3255494  92.2448635
  30.3669545  98.6511680  97.2051682  31.2016436  99.0901484  97.3689242
  30.5028673  98.1750333  96.3859928  27.4161051  96.2091415 103.1529170
  27.8915172  96.4019061 102.3448021  26.4926616  96.2650601 102.9072553
  14.3044557  97.3715582  92.7360248  14.0590599  96.4677912  92.9340458
  14.4740472  97.3732732  91.7939726  21.9941267  88.2439258 102.1185004
  22.5123211  88.9800285 101.7931492  21.6396400  88.5503252 102.9531763
  13.5740205  93.1043939  90.2346409  12.8809450  93.1788294  89.5786445
  13.3291957  92.3404283  90.7567926  22.2453861  84.6639541  97.6385900
  22.5255615  83.9962730  98.2646327  23.0304468  84.8568636  97.1260564
  20.0487330 103.8398535  89.2010927  19.4761297 104.4588722  88.7481398
  20.6220123 104.3897896  89.7350848  26.1162720  93.0857175 101.3857475
  27.0680142  93.1855272 101.4069699  25.9466170  92.2935443 101.8955560
  24.1377099  90.1712758 101.5716876  23.5427031  90.4517771 100.8763365
  23.8526796  90.6606659 102.3433617  23.2684589 104.1235685  90.3319509
  24.2015263 104.0581246  90.5352384  23.1807802 104.9591952  89.8734041
  25.8972606 103.4401555  87.2923456  25.8186238 103.1061419  88.1859214
  26.7182273 103.9323323  87.2914929  28.5950797  96.3063294 100.4999775
  28.5627117  95.3679295 100.6859459  29.2051421  96.3847331  99.7665600
  20.4334128  95.1759347  86.5426979  21.3793233  95.0465556  86.6115397
  20.0548373  94.4374009  87.0196407  28.7445286  93.0974338 100.5458058
  28.2284334  92.3132795 100.3587987  29.6285234  92.7693055 100.7104578
  26.4056013  86.8415353  96.5053871  26.2080834  86.5330442  97.3897203
  27.0155718  87.5676992  96.6351801  34.4127347  97.3679301  99.6405812
  35.1430736  97.1064589 100.2013515  33.8034293  96.6308023  99.6807880
  32.4942644  95.5087164 100.2380263  31.7675808  95.3743129  99.6296755
  32.0789931  95.8163992 101.0436981  18.6177045  93.1009324  86.4781864
  17.7108501  92.8042437  86.5544578  18.8953026  92.8039142  85.6116150
  20.2339111  87.6446214  92.6326106  19.4239839  87.2993299  93.0081352
  20.9223528  87.3353757  93.2213717  22.1629659  86.7224260  94.2550402
  22.7160698  87.1419714  94.9140425  22.3999746  85.7960008  94.2973358
  17.3875830  89.9596259  86.6193843  18.2494994  90.2851157  86.8789661
  17.5726174  89.1727755  86.1066909  25.5408466  88.8324785  93.7629066
  24.9607135  89.4909590  93.3807119  25.2744399  88.0102130  93.3516484
  23.9912033  88.2329843  95.9650387  24.4911811  88.3446378  95.1564706
  24.6347641  87.9290896  96.6051195  24.3233344  90.9924876  92.8185415
  23.4359199  91.2774527  92.6005609  24.7387333  90.8318639  91.9712692
  27.6747881  91.0171397  96.5339754  28.4508271  91.5067849  96.8064371
  26.9496015  91.4429451  96.9911623  30.1120439  91.7299016  97.5913695
  30.7064930  91.4894752  96.8807003  30.1847023  91.0106147  98.2187231
  23.4676558 100.7569551  86.9133435  24.1712408 100.9619553  87.5291090
  22.7439207 101.3246312  87.1782518  24.2974368  96.5079412  93.0335705
  24.2409570  96.9647963  92.1943337  24.8502711  95.7470096  92.8558548
  28.1079174  92.2969144  93.8585824  27.8516108  91.8965779  94.6894032
  27.4832042  93.0112938  93.7335963  32.4191512  95.0365217  96.3657116
  31.8591070  95.1058406  97.1388678  31.8135015  94.8606202  95.6456612
  25.3763255 101.1952080  88.9631895  26.2108859 100.7633278  88.7809370
  25.2147598 101.0234093  89.8908789  25.0309147  97.6984193  90.3288234
  24.9757951  97.5328464  89.3876678  24.4055203  98.4060226  90.4850424
  18.3405273  87.1992302  89.9073552  18.3283943  88.1434142  90.0641823
  19.2328695  87.0162447  89.6133014  22.1557392  83.7935079  94.1619489
  21.3889788  83.2393565  94.3076172  22.5668097  83.8656947  95.0233641
  33.5588799 109.4373185  96.1340280  34.3451888 109.0192608  95.7830697
  33.8227503 110.3419277  96.3021928  38.9597226 109.3748418  97.0373258
  39.6922398 108.8047635  97.2711088  38.2036582 108.9870018  97.4779764
  36.4822646 103.0869992 101.4967867  36.1505971 103.9565403 101.2729082
  35.8868260 102.7706276 102.1761897  30.2178833 106.8265559  89.2297949
  30.3853235 107.6945796  89.5968420  30.0276002 106.9892841  88.3059238
  36.3751310 107.8065078  98.5761217  35.4668187 107.7380487  98.2819978
  36.3238905 108.2837023  99.4043042  38.2412956 106.0081517 100.3539091
  37.5987336 106.3014050  99.7078885  37.7367885 105.8934437 101.1592287
  35.8953120 109.7544690  91.0424950  36.8070976 109.9872077  90.8672647
  35.3862767 110.3381734  90.4800028  33.2389095 105.9302726  99.2914811
  32.3773574 106.2283979  99.5831548  33.2651529 106.1473125  98.3595843
  44.8414687 112.5395609  96.9085567  44.0878395 111.9703007  96.7529572
  44.9762228 112.5058274  97.8556202  33.5805778 100.9339573 101.1139180
  33.2370048 101.8241215 101.0378291  33.9484741 100.7441231 100.2508765
  31.1303172 105.7697885  94.6796854  30.2744768 105.3804735  94.5002492
  31.5430124 105.8489846  93.8196639  32.6602319 103.3044228  99.0788413
  32.1567114 103.2674364  98.2656219  32.9532925 104.2136971  99.1385070
  28.9045204 103.3882958  98.0854595  29.7698201 103.1925767  97.7260485
  28.9722713 103.1593310  99.0123952  33.3342364 108.7975276  91.4471397
  33.0292500 109.1121426  92.2981540  34.2872806 108.8756696  91.4898730
  26.5107524 105.6185166  95.4570962  27.0851275 105.3960347  94.7244155
  27.0978506 105.6873861  96.2099563  26.8377111 107.6489627  89.4766847
  26.0014423 107.9864314  89.7976122  26.6981880 107.5138607  88.5393984
  28.8130191 102.4926415  94.1846031  28.1594604 102.1775432  93.5602646
  28.7710665 101.8702155  94.9105854  32.0467932 108.9808348  98.5093679
  31.1290493 109.2023295  98.3515367  32.4628075 109.0554659  97.6505386
  35.2781817 107.4156880  95.6215149  34.5404573 106.9034267  95.9525391
  35.5308590 106.9757262  94.8098426  35.3793444 100.1933132  96.2156918
  35.6852321  99.3330496  95.9282833  36.1046049 100.7850753  96.0155912
  26.7115491 107.4936854  86.6764754  25.8344957 107.3725655  86.3127001
  27.1873244 106.7022933  86.4243643  33.2076067 105.6557774  96.5661480
  33.7044767 104.9027737  96.2462550  32.4363049 105.6922091  96.0004689
  41.0605824 111.3598140  98.2079771  41.0495701 112.2422855  97.8373705
  40.1923204 111.0069691  98.0134309  29.7911036 107.7975157  96.2933165
  29.4208823 107.2446198  96.9814070  30.2870128 107.1933291  95.7408165
  37.6778399 110.2546781  94.6749938  38.1438851 111.0874772  94.6010240
  38.1285900 109.7891762  95.3795196  35.6495062 102.6227368  98.7140839
  34.7358142 102.8531595  98.8823046  36.0788163 102.7065812  99.5654871
  35.4201520 110.8117260 101.2140733  34.7672971 111.0593167 100.5593186
  35.7981900 109.9981398 100.8803210  23.1682026 106.7692807  92.2416985
  22.8394732 105.8890186  92.0592091  23.5221397 106.7140476  93.1293374
  26.2823849 107.0565777  92.6092463  26.6219922 107.5851698  91.8871071
  26.7295970 107.3946183  93.3851029  29.6283762 102.5252140 100.5122854
  30.4509831 102.0512619 100.3901744  29.8721826 103.3042624 101.0121540
  28.2691997 105.5540399  90.8085755  28.9900359 105.9321652  90.3049472
  27.6457301 106.2729276  90.9120733  32.4123119 106.2585548  91.7444088
  32.6286734 107.1410186  91.4432916  31.9317187 105.8671761  91.0149730
  29.0118724 106.2073809  98.3695722  28.9980292 105.3114902  98.0328020
  29.7291152 106.2144473  99.0034008  30.8644854 106.6411149 100.4148849
  30.6062632 107.5628220 100.4133180  30.3329895 106.2441584 101.1049313
  28.4155620 105.0888189  93.6383292  28.5371531 104.1604835  93.8374179
  28.1257662 105.1026875  92.7261607  31.2846810 102.7743100  96.7750012
  31.3068507 102.8382433  95.8201991  31.7014869 101.9347608  96.9690518
  41.6630434 112.5098359  94.8129234  42.1061580 111.7605684  94.4148358
  40.7856945 112.5008496  94.4302966  38.2554805 111.5383332 103.1529170
  38.7308927 111.7310979 102.3448021  37.3320370 111.5942518 102.9072553
  32.8335021 103.5731176 102.1185004  33.3516965 104.3092203 101.7931492
  32.4790154 103.8795169 102.9531763  33.0847616  99.9931458  97.6385900
  33.3649369  99.3254648  98.2646327  33.8698223 100.1860554  97.1260564
  36.9556474 108.4149092 101.3857475  37.9073897 108.5147190 101.4069699
  36.7859924 107.6227361 101.8955560  34.9770853 105.5004676 101.5716876
  34.3820786 105.7809688 100.8763365  34.6920550 105.9898577 102.3433617
  39.4344552 111.6355212 100.4999775  39.4020872 110.6971213 100.6859459
  40.0445175 111.7139249  99.7665600  39.5839040 108.4266256 100.5458058
  39.0678089 107.6424712 100.3587987  40.4678989 108.0984972 100.7104578
  37.2449767 102.1707271  96.5053871  37.0474588 101.8622359  97.3897203
  37.8549473 102.8968910  96.6351801  45.2521102 112.6971219  99.6405812
  45.9824490 112.4356507 100.2013515  44.6428047 111.9599941  99.6807880
  43.3336399 110.8379082 100.2380263  42.6069562 110.7035046  99.6296755
  42.9183686 111.1455910 101.0436981  29.4570800 108.4301241  86.4781864
  28.5502255 108.1334354  86.5544578  29.7346781 108.1331060  85.6116150
  31.0732866 102.9738131  92.6326106  30.2633594 102.6285216  93.0081352
  31.7617282 102.6645675  93.2213717  33.0023414 102.0516178  94.2550402
  33.5554452 102.4711631  94.9140425  33.2393500 101.1251926  94.2973358
  28.2269584 105.2888177  86.6193843  29.0888748 105.6143075  86.8789661
  28.4119929 104.5019673  86.1066909  36.3802221 104.1616703  93.7629066
  35.8000890 104.8201507  93.3807119  36.1138154 103.3394048  93.3516484
  34.8305787 103.5621761  95.9650387  35.3305566 103.6738295  95.1564706
  35.4741395 103.2582814  96.6051195  35.1627099 106.3216794  92.8185415
  34.2752954 106.6066444  92.6005609  35.5781088 106.1610557  91.9712692
  38.5141635 106.3463315  96.5339754  39.2902025 106.8359767  96.8064371
  37.7889769 106.7721369  96.9911623  40.9514194 107.0590934  97.5913695
  41.5458684 106.8186670  96.8807003  41.0240777 106.3398064  98.2187231
  38.9472929 107.6261061  93.8585824  38.6909863 107.2257697  94.6894032
  38.3225797 108.3404855  93.7335963  43.2585266 110.3657135  96.3657116
  42.6984824 110.4350324  97.1388678  42.6528770 110.1898119  95.6456612
  29.1799027 102.5284220  89.9073552  29.1677697 103.4726060  90.0641823
  30.0722449 102.3454365  89.6133014  32.9951147  99.1226996  94.1619489
  32.2283543  98.5685483  94.3076172  33.4061852  99.1948865  95.0233641
   1.4839670  28.2290061  83.6330874   0.7303378  27.6597459  83.4774878
   1.6187211  28.1952725  84.5801509   1.8946085  28.3865671  86.3651118
   2.6249473  28.1250959  86.9258822   1.2853030  27.6494393  86.4053186
   1.4866268  42.7308100  85.7832378   2.1244678  42.6114848  85.0795718
   1.3687111  43.6788944  85.8420330   1.0407537  40.4559554  82.8585586
   1.8270626  40.0378977  82.5076003   1.3046241  41.3605646  83.0267235
   1.2117614  45.8932405  77.5574243   0.5763447  45.9667031  78.2695148
   0.8815020  46.4826003  76.8793322   6.4415964  40.3934787  83.7618565
   7.1741136  39.8234004  83.9956394   5.6855319  40.0056388  84.2025070
   3.9641384  34.1056362  88.2213173   3.6324709  34.9751773  87.9974388
   3.3686998  33.7892646  88.9007204   3.8570047  38.8251448  85.3006523
   2.9486925  38.7566856  85.0065284   3.8057643  39.3023393  86.1288349
   5.7231694  37.0267886  87.0784397   5.0806074  37.3200419  86.4324192
   5.2186622  36.9120807  87.8837594   3.3771858  40.7731059  77.7670257
   4.2889714  41.0058446  77.5917954   2.8681505  41.3568104  77.2045335
   1.6612625  45.1955687  91.4031549   2.0695981  44.7538098  90.6586181
   0.9389887  44.6208315  91.6565742   1.9841440  45.7556878  85.1583838
   1.3550302  45.9202592  84.4559906   1.5967102  46.1698487  85.9294802
   5.8630672  46.6911316  82.5128202   5.1781710  47.0710217  81.9625235
   5.9474521  47.3006642  83.2460149   1.1643141  37.7932662  90.4346280
   0.9204072  38.5474723  89.8980555   1.4403071  38.1718010  91.2693527
   3.1181603  44.3371275  89.1123545   3.3298499  44.9803035  88.4357926
   3.0711352  43.5033591  88.6445475   4.2327431  47.2143230  87.2845903
   5.0544875  46.8123417  87.0028584   4.2289834  47.1111464  88.2362018
  12.3233424  43.5581979  83.6330874  11.5697133  42.9889377  83.4774878
  12.4580966  43.5244643  84.5801509   1.4381767  49.3321747  91.4667337
   1.4200242  50.1530628  90.9747606   2.3601687  49.2075823  91.6917478
   1.0624516  31.9525943  87.8384487   0.7188785  32.8427584  87.7623597
   1.4303479  31.7627600  86.9754072   1.0274799  41.9434554  76.3456922
   0.5121422  42.7139159  76.5845309   0.7552107  41.2699690  76.9689983
   6.0009073  44.6966909  78.2810095   5.2238516  44.3578068  77.8365258
   6.6800554  44.7019532  77.6065061   0.8161102  39.8161646  78.1716703
   0.5111237  40.1307795  79.0226846   1.7691544  39.8943066  78.2144036
   4.2400380  44.1700890  84.9376703   3.5824054  44.8600151  85.0256832
   5.0440779  44.5597322  85.2810690   3.0505839  42.5245262  82.9880645
   3.5637720  43.1575254  83.4902355   3.7007062  41.9246458  82.6224005
   3.8167635  47.5051264  81.1159788   3.3629962  46.6642174  81.1724978
   3.1861601  48.1412662  81.4534568   2.7600554  38.4343250  82.3460455
   2.0223311  37.9220636  82.6770698   3.0127328  37.9943632  81.5343732
   2.2600574  49.3427761  82.0509606   2.5523548  49.9032818  81.3321972
   2.7699195  49.6356322  82.8062765   2.8612182  31.2119502  82.9402225
   3.1671058  30.3516865  82.6528140   3.5864786  31.8037122  82.7401218
   0.6699833  40.5892179  90.0383688   1.0249221  40.8163652  90.8978154
   1.3171964  40.9210556  89.4160944   6.3997570  43.7110615  80.7433017
   6.2615468  43.9012211  79.8154207   6.0433789  44.4729998  81.2001069
   6.4266950  45.7787142  85.7544289   6.8603456  45.6862431  86.6027343
   7.1398530  45.7544643  85.1164305   7.2882499  45.8210843  88.2877174
   7.4818389  46.7256653  88.5336449   7.1883117  45.3618262  89.1215759
   2.3497608  45.9717586  93.8618055   2.1983114  45.7428137  92.9448139
   2.3402287  46.9288187  93.8749400   2.4035683  44.2937800  74.2788756
   1.7864853  43.5684628  74.1821809   1.9352171  45.0547160  73.9355831
   4.0589814  49.0036708  91.9394537   4.0002361  48.3195928  91.2725120
   4.4609333  49.7455698  91.4875163   4.0607222  46.9676292  90.1708516
   3.1734000  46.6302214  90.2934915   4.6305773  46.2359323  90.4077282
   8.5424562  42.3784509  84.9325078   8.5314438  43.2609225  84.5619011
   7.6741942  42.0256060  84.7379615   1.7724585  45.4315831  80.8645210
   0.8380864  45.5517294  80.6949914   1.9501254  44.5288298  80.6005220
   5.1597137  41.2733150  81.3995244   5.6257589  42.1061142  81.3255547
   5.6104637  40.8078132  82.1040503   3.2273368  47.6176972  78.3981396
   3.5033212  47.5033566  79.3075270   2.3577867  47.2194457  78.3593569
   3.1313800  33.6413737  85.4386145   2.2176879  33.8717964  85.6068352
   3.5606901  33.7252181  86.2900178   2.9020258  41.8303629  87.9386040
   2.2491708  42.0779537  87.2838492   3.2800638  41.0167768  87.6048517
   2.5441488  48.7051625  94.5158347   3.0881392  49.3181584  94.0213302
   1.9628333  49.2631204  95.0325360   0.8299001  51.8272343  85.6473375
   0.7050141  51.0262083  85.1384320   1.4878092  52.3218537  85.1587345
   2.8933910  49.6281363  87.2752925   1.9464245  49.5086715  87.2031252
   3.2416683  48.7403861  87.3579186   3.5014465  50.2462638  84.5622150
   4.4261012  50.0405500  84.4246601   3.3329768  49.9979040  85.4711491
   3.2909781  50.7648306  79.9184241   3.4646659  50.1994728  79.1658094
   3.7838672  51.5649201  79.7363731   9.1449172  43.5284729  81.5374541
   9.5880318  42.7792054  81.1393664   8.2675682  43.5194865  81.1548273
   4.2784953  50.0815070  77.0181140   4.9735858  50.7021763  77.2368454
   4.6208104  49.2310421  77.2933517   6.1776377  47.5314776  78.5468470
   6.7027701  47.8702049  77.8217790   6.0898729  46.5961791  78.3631605
   5.8670283  48.1647679  93.8519668   5.0765826  48.1471818  93.3124168
   5.6303637  48.7035973  94.6068705   5.9868158  45.0140146  91.1652397
   6.0366163  44.8490153  92.1067920   5.8782081  44.1467405  90.7750278
   3.2771920  40.9971074  92.4811704   4.1781783  40.8577539  92.1895701
   3.3519895  41.1625529  93.4209881   7.4886355  47.4337087  91.4094418
   7.1971163  47.7967068  92.2457879   6.8758486  46.7204096  91.2307750
   8.6882037  44.9989967  83.9296989   9.5228928  45.4379771  84.0934549
   8.8241166  44.5228620  83.1105234   5.7373543  42.5569702  89.8774476
   6.2127664  42.7497348  89.0693328   4.8139108  42.6128888  89.6317860
   0.5666353  31.0117828  84.3631207   0.8468107  30.3441017  84.9891633
   1.3516960  31.2046924  83.8505871   4.4375212  39.4335462  88.1102782
   5.3892635  39.5333560  88.1315006   4.2678662  38.6413731  88.6200866
   2.4589591  36.5191045  88.2962183   1.8639523  36.7996058  87.6008671
   2.1739288  37.0084946  89.0678924   1.5897082  50.4713972  77.0564815
   2.5227755  50.4059534  77.2597691   1.5020295  51.3070239  76.5979348
   4.2185098  49.7879842  74.0168763   4.1398730  49.4539706  74.9104521
   5.0394765  50.2801610  74.0160235   6.9163290  42.6541582  87.2245082
   6.8839610  41.7157582  87.4104765   7.5263913  42.7325618  86.4910906
   7.0657778  39.4452625  87.2703365   6.5496827  38.6611082  87.0833294
   7.9497727  39.1171342  87.4349884   4.7268505  33.1893641  83.2299177
   4.5293326  32.8808729  84.1142509   5.3368211  33.9155280  83.3597107
  12.7339839  43.7157589  86.3651118  13.4643228  43.4542877  86.9258822
  12.1246785  42.9786310  86.4053186  10.8155137  41.8565451  86.9625570
  10.0888300  41.7221416  86.3542061  10.4002423  42.1642280  87.7682288
   0.4842152  33.0702548  80.9795709   1.0373190  33.4898001  81.6385732
   0.7212238  32.1438296  81.0218665   3.8620959  35.1803073  80.4874373
   3.2819628  35.8387877  80.1052425   3.5956891  34.3580417  80.0761791
   2.3124525  34.5808130  82.6895693   2.8124303  34.6924665  81.8810012
   2.9560133  34.2769183  83.3296502   2.6445837  37.3403163  79.5430721
   1.7571692  37.6252814  79.3250916   3.0599826  37.1796927  78.6957998
   5.9960373  37.3649684  83.2585061   6.7720763  37.8546137  83.5309677
   5.2708507  37.7907738  83.7156930   8.4332931  38.0777303  84.3159001
   9.0277422  37.8373039  83.6052309   8.5059515  37.3584434  84.9432537
   1.7889050  47.1047838  73.6378741   2.4924900  47.3097840  74.2536397
   1.0651699  47.6724600  73.9027825   2.6186860  42.8557699  79.7581011
   2.5622062  43.3126250  78.9188644   3.1715203  42.0948384  79.5803854
   6.4291666  38.6447431  80.5831131   6.1728601  38.2444067  81.4139339
   5.8044534  39.3591225  80.4581270  10.7404004  41.3843504  83.0902422
  10.1803562  41.4536693  83.8633984  10.1347508  41.2084489  82.3701919
   3.6975748  47.5430367  75.6877201   4.5321352  47.1111565  75.5054676
   3.5360090  47.3712381  76.6154096   3.3521640  44.0462480  77.0533541
   3.2970444  43.8806752  76.1121985   2.7267695  44.7538513  77.2095730
  12.3260023  58.0600018  85.7832378  12.9638433  57.9406765  85.0795718
  12.2080866  59.0080862  85.8420330   9.1349729  58.0127446  85.7193903
   8.7968240  57.8968511  84.8314438  10.0039497  57.6118611  85.6994909
   4.9936545  59.8662923  81.7090794   4.4301410  59.7752860  80.9407082
   4.8788940  59.0462827  82.1893286   9.6169512  59.1662298  91.6780108
   9.6058153  58.7715096  90.8060612   9.7790151  58.4328371  92.2713880
   2.5400977  61.3614114  84.5475014   3.3322268  61.0204939  84.1321314
   2.7797627  61.4709089  85.4677168  10.5736103  63.5333890  77.0205259
   9.9224083  64.1187971  76.6339272  11.3680466  64.0640085  77.0800296
   4.4991731  60.6223027  77.4192393   5.2722607  60.0752015  77.2805269
   4.8517129  61.4867277  77.6306854   6.3376773  61.9499410  90.6259292
   6.0466639  62.8545041  90.5105959   6.9733757  61.9915937  91.3403362
   7.2632980  59.3276258  87.2160652   7.8596552  59.1032281  86.5017615
   7.3207951  58.5861004  87.8186100   6.8358008  56.7815694  75.0510843
   7.0883529  56.2597215  74.2894306   5.8982567  56.6181839  75.1537527
  11.8801291  55.7851472  82.8585586  12.6664380  55.3670895  82.5076003
  12.1439995  56.6897564  83.0267235  12.0511368  61.2224322  77.5574243
  11.4157201  61.2958949  78.2695148  11.7208775  61.8117921  76.8793322
  17.2809718  55.7226705  83.7618565  18.0134890  55.1525922  83.9956394
  16.5249074  55.3348306  84.2025070   6.5554297  58.6843800  77.2535218
   6.4390555  58.0088703  77.9216302   6.6656557  58.1976173  76.4367371
   8.8985838  58.1453947  80.9581907   8.5344045  57.6184568  81.6694829
   9.7552954  57.7552416  80.7848393  14.8035139  49.4348279  88.2213173
  14.4718463  50.3043690  87.9974388  14.2080752  49.1184563  88.9007204
   8.5391325  53.1743846  75.9543256   8.7065727  54.0424083  76.3213727
   8.3488494  53.3371128  75.0304545  11.2966658  61.6360825  87.6209086
  10.9967381  62.5385864  87.5124893  10.9517718  61.3693008  88.4730239
   4.7479140  58.0874622  83.6545790   3.8229636  57.9550836  83.8623482
   4.9963553  58.8668841  84.1515733  14.6963802  54.1543365  85.3006523
  13.7880679  54.0858774  85.0065284  14.6451398  54.6315310  86.1288349
   8.5180546  55.6301504  76.9389922   8.3980171  56.0758555  77.7775403
   7.8233134  55.9786822  76.3803461   2.1087951  57.7307896  84.4889579
   2.2380332  57.9842375  85.4028991   1.4285402  58.3235604  84.1694235
   6.2787438  68.4005146  80.5880054   6.2011468  69.3512971  80.6668534
   5.6749082  68.0551018  81.2454980   8.7704668  55.5733011  93.2441421
   7.9938002  56.1326931  93.2344285   9.4095231  56.0589794  93.7656291
  16.5625448  52.3559804  87.0784397  15.9199829  52.6492337  86.4324192
  16.0580377  52.2412724  87.8837594  14.2165612  56.1022977  77.7670257
  15.1283468  56.3350364  77.5917954  13.7075259  56.6860021  77.2045335
   7.0251040  58.3818464  92.8059388   7.7665724  58.9203508  92.5294211
   6.3188026  59.0084753  92.9630939  12.5006380  60.5247605  91.4031549
  12.9089736  60.0830015  90.6586181  11.7783641  59.9500232  91.6565742
   8.8537450  55.4620212  88.7765106   9.6998645  55.8859625  88.9199755
   8.7936087  54.8053836  89.4703669  12.8235194  61.0848795  85.1583838
  12.1944057  61.2494510  84.4559906  12.4360856  61.4990405  85.9294802
  16.7024426  62.0203233  82.5128202  16.0175464  62.4002135  81.9625235
  16.7868276  62.6298560  83.2460149  12.0036895  53.1224580  90.4346280
  11.7597827  53.8766641  89.8980555  12.2796826  53.5009928  91.2693527
  13.9575358  59.6663192  89.1123545  14.1692253  60.3094952  88.4357926
  13.9105106  58.8325509  88.6445475  11.5601587  52.2781013  86.0160117
  10.6986066  52.5762267  86.3076855  11.5864021  52.4951412  85.0841150
   8.3763156  60.8223204  82.4233923   8.8401502  61.1010907  81.6338546
   8.1119954  59.9206648  82.2407014   5.2687237  60.3694685  85.3613686
   5.8388594  60.7981953  84.7231171   5.8595349  60.0877270  86.0597872
   7.3132042  56.9446356  79.2323488   8.0156086  57.3967400  79.6997415
   6.9812671  56.3030175  79.8603381   5.7612404  55.5358113  93.6074698
   5.1311064  56.2174393  93.8410094   5.6548492  55.4241194  92.6627836
  15.0721186  62.5435148  87.2845903  15.8938630  62.1415335  87.0028584
  15.0683589  62.4403382  88.2362018   3.0072122  55.5674488  81.4924098
   2.2103285  55.6793182  82.0107594   2.7797714  55.9061140  80.6264989
   8.8377789  62.0919191  89.4406613   8.9022222  62.5539598  90.2764785
   8.1288713  61.4616556  89.5688923  23.1627179  58.8873896  83.6330874
  22.4090887  58.3181294  83.4774878  23.2974720  58.8536561  84.5801509
   8.5525807  63.7587299  79.3085593   8.4171482  64.6038834  79.7370441
   9.0935619  63.9606576  78.5451527   5.0393147  49.8378878  95.9699949
   4.6460092  49.2845077  96.6447593   5.8559287  50.1489457  96.3606466
   2.0055204  61.2762737  79.8813519   2.5179725  62.0705987  80.0319083
   2.6577917  60.5789027  79.8147120   3.8150089  64.3928493  81.9636272
   3.9916717  65.3146458  81.7757256   4.6106922  64.0786912  82.3930651
   7.9561108  51.2536758  93.5620205   8.6970821  51.8543911  93.4824668
   8.1879030  50.5114395  93.0038248   3.1002446  56.4393125  91.8398435
   2.9855961  55.5378382  92.1405534   2.2446963  56.6856822  91.4883251
  10.1794283  64.3810865  93.4385935   9.7358137  63.5947244  93.1206840
  10.8411497  64.5690016  92.7729826   4.9381404  65.9106667  87.9646614
   5.4888830  65.7823730  87.1923608   4.0992880  66.2101556  87.6141507
  12.2775521  64.6613665  91.4667337  12.2593997  65.4822546  90.9747606
  13.1995441  64.5367740  91.6917478   8.7348575  62.1757794  92.3090845
   9.2676912  61.4146083  92.0790153   8.2062657  61.8831446  93.0515000
  11.9018270  47.2817860  87.8384487  11.5582540  48.1719502  87.7623597
  12.2697233  47.0919518  86.9754072  11.8668553  57.2726472  76.3456922
  11.3515177  58.0431076  76.5845309  11.5945862  56.5991608  76.9689983
   9.4515664  52.1176172  81.4042160   8.5957261  51.7283023  81.2247799
   9.8642616  52.1968133  80.5441946  10.9814811  49.6522516  85.8033720
  10.4779606  49.6152651  84.9901525  11.2745418  50.5615258  85.8630377
   7.2257697  49.7361245  84.8099902   8.0910693  49.5404054  84.4505791
   7.2935206  49.5071597  85.7369259  16.8402827  60.0258826  78.2810095
  16.0632270  59.6869986  77.8365258  17.5194308  60.0311449  77.6065061
  11.6554856  55.1453564  78.1716703  11.3504992  55.4599713  79.0226846
  12.6085298  55.2234984  78.2144036  10.1001288  61.3043787  79.8209657
   9.5722650  60.5696547  79.5082895   9.5988791  62.0818463  79.5749625
  15.0794134  59.4992807  84.9376703  14.4217809  60.1892069  85.0256832
  15.8834533  59.8889239  85.2810690   4.8320016  51.9663453  82.1816269
   5.4063768  51.7438635  81.4489462   5.4190998  52.0352148  82.9344870
  13.8899593  57.8537180  82.9880645  14.4031475  58.4867172  83.4902355
  14.5400817  57.2538376  82.6224005   5.1589603  53.9967914  76.2012154
   4.3226915  54.3342601  76.5221429   5.0194373  53.8616894  75.2639291
   7.1342684  48.8404702  80.9091338   6.4807096  48.5253719  80.2847953
   7.0923158  48.2180443  81.6351161   8.2453888  59.1223997  72.8244630
   7.3380950  58.8913251  73.0235779   8.7424920  58.3261616  73.0118612
  11.1521967  67.8321504  75.7441316  10.4783666  68.1353201  76.3526274
  11.5387789  68.6350585  75.3946773  10.3680424  55.3286636  85.2338986
   9.4502985  55.5501583  85.0760674  10.7840567  55.4032946  84.3750693
  11.1515472  56.7278051  80.3641666  11.8987291  57.2399449  80.0548788
  11.4207061  56.4062104  81.2246060   9.4242122  59.2236592  77.3468620
   8.5153341  58.9395625  77.4441090   9.4537206  59.6435671  76.4871927
  14.6561389  62.8343182  81.1159788  14.2023716  61.9934091  81.1724978
  14.0255356  63.4704580  81.4534568  13.5994309  53.7635168  82.3460455
  12.8617066  53.2512554  82.6770698  13.8521082  53.3235549  81.5343732
  13.0994328  64.6719678  82.0509606  13.3917303  65.2324735  81.3321972
  13.6092949  64.9648239  82.8062765  13.7005936  46.5411420  82.9402225
  14.0064813  45.6808783  82.6528140  14.4258541  47.1329040  82.7401218
   7.9727016  56.8365213  83.4478416   8.0275626  55.8839049  83.3720892
   7.1618218  56.9924652  83.9319714   9.1218210  60.7645336  74.6856699
   8.6837640  60.0481195  74.2262336   9.8628650  60.9921451  74.1241790
   5.9119376  55.4542272  81.2068794   5.0987241  55.7536443  81.6133987
   6.4078370  55.0597961  81.9243277   8.0627954  65.4500029  83.1403059
   8.0204132  65.6760876  82.2111591   8.9790653  65.2163404  83.2888860
  11.5093587  55.9184097  90.0383688  11.8642975  56.1455570  90.8978154
  12.1565719  56.2502474  89.4160944  17.2391324  59.0402533  80.7433017
  17.1009223  59.2304129  79.8154207  16.8827543  59.8021916  81.2001069
   5.4033451  53.0260628  86.8230029   6.0432830  52.8849387  86.1252993
   4.5710981  52.7395141  86.4468631  17.2660704  61.1079060  85.7544289
  17.6997211  61.0154349  86.6027343  17.9792285  61.0836560  85.1164305
   6.1793754  62.3263058  82.9365022   6.9734353  61.8313379  82.7347597
   5.4685447  61.7980922  82.5732727  10.9988599  64.7081154  87.2877390
  11.0525621  65.2772090  88.0555105  10.1303380  64.8783039  86.9231427
   2.4876518  56.4706140  79.0124775   1.5574106  56.4090596  79.2294737
   2.5833990  55.9482093  78.2161416   2.4062067  52.9960953  81.6003016
   2.6668884  53.9106286  81.4912177   3.2279239  52.5285396  81.7499629
   3.8786992  54.4098710  88.7701841   4.5510046  54.2016072  88.1214490
   3.0516779  54.2120796  88.3307073  18.1276254  61.1502760  88.2877174
  18.3212144  62.0548571  88.5336449  18.0276872  60.6910180  89.1215759
   9.7812564  51.0360651  90.7867502   9.1340479  51.7350601  90.6931978
  10.5513580  51.4696795  91.1543750  13.1891362  61.3009503  93.8618055
  13.0376869  61.0720055  92.9448139  13.1796042  62.2580105  93.8749400
   9.9576699  58.8741416  88.8464321  10.8868759  59.0252576  88.6733289
   9.5367729  58.9625437  87.9912968   8.7565030  62.8992080  86.6162859
   8.6176116  62.5310865  87.4888797   7.9679627  63.4139720  86.4446817
   9.3513182  68.0001177  77.9588396   9.5264938  67.5289220  78.7734018
   8.6645970  68.6266943  78.1869656  10.3070246  62.2773683  84.0051697
   9.9720078  62.2374453  84.9009347   9.8074191  61.6118399  83.5322107
   4.2814490  57.6841313  89.5304278   4.1434287  56.9521552  90.1315817
   5.1919413  57.5950213  89.2488466  13.2429437  59.6229717  74.2788756
  12.6258608  58.8976546  74.1821809  12.7745926  60.3839078  73.9355831
   6.9096790  57.3961272  89.0187958   7.6196409  56.7554465  88.9774576
   6.8666098  57.6474167  89.9414138  14.8983569  64.3328626  91.9394537
  14.8396115  63.6487846  91.2725120  15.3003087  65.0747616  91.4875163
   5.6225724  54.3826490  90.8383597   5.0863081  53.9317229  91.4905193
   5.0342433  54.5172399  90.0954061   3.9174268  71.1490540  84.7328256
   4.1570866  71.7809064  85.4107274   3.0743464  70.7978580  85.0193615
   5.0327983  53.8415142  73.4010061   4.1557449  53.7203942  73.0372307
   5.5085736  53.0501220  73.1488949  14.9000976  62.2968210  90.1708516
  14.0127755  61.9594131  90.2934915  15.4699527  61.5651241  90.4077282
   1.3564845  53.5182498  87.9236592   1.2723034  52.9108168  87.1887001
   0.5347552  54.0091516  87.9246088   8.4302130  66.9569662  87.1369760
   8.3572301  67.7624634  87.6489064   7.9879523  67.1561628  86.3117781
   8.2191909  66.1941432  80.6472581   7.4359431  66.7363112  80.7410806
   8.9184654  66.7115412  81.0466822  11.5288559  52.0036062  83.2906787
  12.0257259  51.2506024  82.9707857  10.7575541  52.0400378  82.7249996
  19.3818317  57.7076427  84.9325078  19.3708193  58.5901142  84.5619011
  18.5135696  57.3547978  84.7379615  10.8900813  66.8556496  89.2927918
  11.6028785  67.4903961  89.2203820  10.3990842  66.9520362  88.4767920
  12.6118340  60.7607749  80.8645210  11.6774619  60.8809211  80.6949914
  12.7895008  59.8580216  80.6005220   8.1123528  54.1453445  83.0178471
   7.7421316  53.5924485  83.7059377   8.6082620  53.5411578  82.4653471
  15.9990891  56.6025068  81.3995244  16.4651344  57.4353060  81.3255547
  16.4498392  56.1370050  82.1040503   5.9412727  64.6050940  90.1133489
   6.6422186  65.2387423  90.2662883   5.4707842  64.9465671  89.3529128
  14.0667122  62.9468889  78.3981396  14.3426966  62.8325484  79.3075270
  13.1971621  62.5486374  78.3593569  13.9707554  48.9705655  85.4386145
  13.0570634  49.2009882  85.6068352  14.4000656  49.0544099  86.2900178
  13.7414013  57.1595547  87.9386040  13.0885463  57.4071454  87.2838492
  14.1194392  56.3459685  87.6048517  10.7021186  67.1955240  82.0414210
  10.8843581  66.3776896  82.5041962  11.5254172  67.4122932  81.6039100
  11.0363352  66.1223425  79.3029258  11.5651118  65.6115880  78.6899420
  11.2991572  65.8065956  80.1674791   9.7901586  57.9015358  94.4252077
   9.1142223  57.8009487  95.0954452  10.6129219  57.7454572  94.8888074
   1.5380445  64.1387295  87.0464592   2.1233881  63.3930982  87.1792496
   1.3405283  64.4491251  87.9301256   4.3919100  67.1738542  82.0627034
   3.7229475  67.6584670  81.5791074   4.2531970  67.4207762  82.9770413
   8.5324368  69.2082286  88.6609693   9.0842676  69.3713907  89.4258778
   8.8730562  69.7986723  87.9889717   3.5088862  51.5557435  89.2631577
   3.5730188  52.4172266  88.8508975   3.4455982  50.9431437  88.5303936
   2.9841134  53.6280568  92.9104612   3.6113173  53.2457645  93.5242136
   2.1269053  53.4094770  93.2760304  13.3835243  64.0343543  94.5158347
  13.9275147  64.6473501  94.0213302  12.8022088  64.5923121  95.0325360
  11.6692756  67.1564261  85.6473375  11.5443895  66.3554001  85.1384320
  12.3271847  67.6510454  85.1587345   3.2900924  53.5112994  84.8250515
   2.5687510  54.1248961  84.6857988   4.0794180  54.0470758  84.7467161
  13.7327664  64.9573281  87.2752925  12.7858000  64.8378632  87.2031252
  14.0810437  64.0695779  87.3579186   6.0927237  50.8467420  91.0991167
   6.6161639  51.0929717  91.8617476   5.8739571  51.6787455  90.6794304
   1.4894519  53.1171095  78.9662292   1.1607225  52.2368474  78.7837397
   1.8433889  53.0618763  79.8538681  10.7374097  64.7525997  83.4757277
  10.5899060  63.8242705  83.6564847  11.5627591  64.7746088  82.9914352
   4.6036342  53.4044064  79.3337769   4.9432414  53.9329986  78.6116378
   5.0508462  53.7424471  80.1096336  14.3408219  65.5754556  84.5622150
  15.2654767  65.3697417  84.4246601  14.1723523  65.3270957  85.4711491
   7.2979783  51.7881115  88.7840837   6.9576603  50.9888928  89.1861517
   6.5918789  52.0882826  88.2117670   7.9496254  48.8730428  87.2368160
   8.7722324  48.3990906  87.1147051   8.1934318  49.6520911  87.7366847
   6.5904489  51.9018686  77.5331062   7.3112851  52.2799939  77.0294779
   5.9669793  52.6207563  77.6366040  10.7335612  52.6063835  78.4689394
  10.9499226  53.4888473  78.1678222  10.2529679  52.2150048  77.7395036
   5.4734833  55.5649548  85.0460139   5.3279414  55.8789851  85.9384420
   4.9960037  56.1834449  84.4931038   7.3331216  52.5552096  85.0941028
   7.3192785  51.6593189  84.7573326   8.0503644  52.5622760  85.7279315
   9.1857347  52.9889436  87.1394156   8.9275125  53.9106507  87.1378486
   8.6542387  52.5919871  87.8294620  14.1303535  66.0940224  79.9184241
  14.3040413  65.5286646  79.1658094  14.6232427  66.8941118  79.7363731
   6.7368112  51.4366476  80.3628599   6.8584023  50.5083123  80.5619486
   6.4470154  51.4505162  79.4506914   9.6059302  49.1221387  83.4995318
   9.6280999  49.1860720  82.5447298  10.0227361  48.2825896  83.6935825
  19.9842927  58.8576646  81.5374541  20.4274073  58.1083972  81.1393664
  19.1069437  58.8486783  81.1548273  15.1178708  65.4106988  77.0181140
  15.8129613  66.0313681  77.2368454  15.4601858  64.5602339  77.2933517
  17.0170131  62.8606693  78.5468470  17.5421455  63.1993966  77.8217790
  16.9292484  61.9253709  78.3631605   8.6790180  66.7740767  90.6758347
   8.9877306  66.5289914  91.5481047   9.4765662  66.9787406  90.1877217
   8.7010792  68.9278677  82.9063724   8.2615782  68.4355055  83.5996580
   9.4518909  68.3851644  82.6655799   1.1803131  65.1190218  82.9088352
   2.0061151  64.8193989  82.5286995   0.8297183  64.3497840  83.3578140
   6.1484664  64.4716686  84.9786025   5.5264673  63.8087391  84.6788253
   6.8189531  64.4977818  84.2959673   6.2209191  52.9498474  94.5718531
   6.2697347  53.8260597  94.1896301   6.7631706  52.4075867  93.9990174
  16.7064037  63.4939597  93.8519668  15.9159581  63.4763736  93.3124168
  16.4697392  64.0327891  94.6068705  16.8261912  60.3432063  91.1652397
  16.8759917  60.1782071  92.1067920  16.7175836  59.4759322  90.7750278
   5.7098171  63.0220609  78.4544486   5.8586291  63.7056074  77.8011158
   6.5164614  63.0025699  78.9693941  14.1165675  56.3262991  92.4811704
  15.0175537  56.1869456  92.1895701  14.1913649  56.4917446  93.4209881
   8.4508480  53.7029846  91.3264890   7.5811789  53.9963412  91.0547478
   8.6867960  54.2870291  92.0472153  18.3280109  62.7629005  91.4094418
  18.0364917  63.1258986  92.2457879  17.7152240  62.0496013  91.2307750
  19.5275791  60.3281885  83.9296989  20.3622683  60.7671689  84.0934549
  19.6634920  59.8520538  83.1105234  16.5767297  57.8861620  89.8774476
  17.0521419  58.0789266  89.0693328  15.6532863  57.9420805  89.6317860
   3.4650804  59.0485787  79.4605555   3.2196846  58.1448117  79.6585765
   3.6346718  59.0502937  78.5185033  11.1547514  49.9209463  88.8430310
  11.6729458  50.6570490  88.5176799  10.8002647  50.2273456  89.6777069
   2.7346451  54.7814144  76.9591716   2.0415696  54.8558499  76.3031752
   2.4898203  54.0174488  77.4813233  11.4060108  46.3409746  84.3631207
  11.6861862  45.6732935  84.9891633  12.1910715  46.5338841  83.8505871
   9.2093576  65.5168740  75.9256233   8.6367544  66.1358927  75.4726705
   9.7826370  66.0668101  76.4596155  15.2768966  54.7627380  88.1102782
  16.2286389  54.8625477  88.1315006  15.1072417  53.9705648  88.6200866
  13.2983346  51.8482963  88.2962183  12.7033278  52.1287976  87.6008671
  13.0133042  52.3376864  89.0678924  12.4290836  65.8005890  77.0564815
  13.3621509  65.7351451  77.2597691  12.3414049  66.6362157  76.5979348
  15.0578853  65.1171760  74.0168763  14.9792484  64.7831624  74.9104521
  15.8788520  65.6093528  74.0160235  17.7557044  57.9833499  87.2245082
  17.7233364  57.0449500  87.4104765  18.3657668  58.0617536  86.4910906
   9.5940375  56.8529552  73.2672286  10.5399480  56.7235760  73.3360704
   9.2154620  56.1144214  73.7441714  17.9051533  54.7744543  87.2703365
  17.3890581  53.9902999  87.0833294  18.7891481  54.4463259  87.4349884
  15.5662259  48.5185558  83.2299177  15.3687081  48.2100647  84.1142509
  16.1761965  49.2447197  83.3597107  23.5733594  59.0449506  86.3651118
  24.3036982  58.7834794  86.9258822  22.9640539  58.3078228  86.4053186
  21.6548891  57.1857369  86.9625570  20.9282055  57.0513334  86.3542061
  21.2396178  57.4934197  87.7682288   9.4779067  60.9047298  94.7272943
  10.3982077  61.0825897  94.9212989   9.4428650  59.9603344  94.5752642
   7.7783292  54.7779529  73.2027171   6.8714747  54.4812641  73.2789884
   8.0559273  54.4809347  72.3361457   2.4741140  58.8148333  87.3695724
   2.6927150  59.7465441  87.3883758   2.8866914  58.4556308  88.1550528
   9.3945358  49.3216418  79.3571412   8.5846086  48.9763503  79.7326658
  10.0829775  49.0123962  79.9459024  11.3235906  48.3994465  80.9795709
  11.8766945  48.8189919  81.6385732  11.5605992  47.4730213  81.0218665
   7.3469005  54.3881539  96.7598473   7.2465732  55.3375896  96.6910564
   7.1290547  54.0599778  95.8874543   6.5482077  51.6366464  73.3439150
   7.4101241  51.9621362  73.6034967   6.7332421  50.8497960  72.8312216
  14.7014713  50.5094990  80.4874373  14.1213382  51.1679794  80.1052425
  14.4350646  49.6872335  80.0761791  13.1518280  49.9100048  82.6895693
  13.6518058  50.0216583  81.8810012  13.7953887  49.6061101  83.3296502
   7.2100275  57.8178678  95.5763534   6.7267357  58.6179038  95.7827423
   7.2961214  57.8286623  94.6230978   0.4786235  59.6507057  83.4985354
   0.4556923  59.7494745  82.5467237   0.7886871  60.4972208  83.8202520
   3.1373613  61.7083212  87.6131968   4.0916866  61.6767155  87.5461900
   2.9386136  61.2473836  88.4282194   3.7272995  60.2784328  90.1802766
   4.5465884  60.7728407  90.2037603   4.0009803  59.3616297  90.1520333
  13.4839591  52.6695081  79.5430721  12.5965446  52.9544731  79.3250916
  13.8993580  52.5088844  78.6957998  16.8354127  52.6941602  83.2585061
  17.6114517  53.1838054  83.5309677  16.1102261  53.1199656  83.7156930
  19.2726686  53.4069221  84.3159001  19.8671177  53.1664957  83.6052309
  19.3453270  52.6876352  84.9432537   1.4923842  67.2502832  84.6302166
   1.3578310  66.4903233  84.0640164   1.0755904  67.9743732  84.1630955
  12.6282805  62.4339755  73.6378741  13.3318655  62.6389758  74.2536397
  11.9045453  63.0016517  73.9027825  13.4580615  58.1849617  79.7581011
  13.4015816  58.6418168  78.9188644  14.0108957  57.4240301  79.5803854
  17.2685421  53.9739349  80.5831131  17.0122355  53.5735984  81.4139339
  16.6438289  54.6883143  80.4581270  21.5797759  56.7135422  83.0902422
  21.0197317  56.7828611  83.8633984  20.9741262  56.5376406  82.3701919
   4.6492968  68.1472149  84.8420609   4.5325352  69.0917581  84.7399299
   3.8285414  67.8445711  85.2306408  14.5369502  62.8722285  75.6877201
  15.3715106  62.4403483  75.5054676  14.3753845  62.7004298  76.6154096
  14.1915394  59.3754398  77.0533541  14.1364198  59.2098669  76.1121985
  13.5661450  60.0830431  77.2095730  11.5061301  61.6803310  96.3787103
  12.3752461  61.8543962  96.0173738  11.0268053  62.4997727  96.2562833
   7.5011520  48.8762507  76.6318859   7.4890190  49.8204347  76.7887130
   8.3934942  48.6932652  76.3378320   5.6747482  68.8000411  88.0576537
   6.5774728  68.8324021  88.3743032   5.4484852  67.8700862  88.0722873
   7.4301084  67.5531397  84.7186616   6.4796715  67.5533259  84.6050988
   7.7333570  66.8064132  84.2022650  11.3163639  45.4705284  80.8864796
  10.5496035  44.9163770  81.0321478  11.7274344  45.5427152  81.7478947
   3.3205400  51.7590079  94.9769977   4.1836862  51.4026884  95.1873302
   2.7470811  51.4203974  95.6645381  23.1653777  73.3891936  85.7832378
  23.8032187  73.2698683  85.0795718  23.0474620  74.3372780  85.8420330
  19.9743483  73.3419364  85.7193903  19.6361995  73.2260429  84.8314438
  20.8433252  72.9410529  85.6994909  15.8330299  75.1954840  81.7090794
  15.2695164  75.1044777  80.9407082  15.7182694  74.3754745  82.1893286
  20.4563266  74.4954216  91.6780108  20.4451907  74.1007014  90.8060612
  20.6183906  73.7620288  92.2713880  13.3794731  76.6906032  84.5475014
  14.1716023  76.3496857  84.1321314  13.6191381  76.8001007  85.4677168
  21.4129858  78.8625808  77.0205259  20.7617838  79.4479888  76.6339272
  22.2074221  79.3932003  77.0800296  15.3385485  75.9514945  77.4192393
  16.1116361  75.4043932  77.2805269  15.6910884  76.8159194  77.6306854
  17.1770528  77.2791327  90.6259292  16.8860394  78.1836958  90.5105959
  17.8127512  77.3207855  91.3403362  18.1026734  74.6568176  87.2160652
  18.6990307  74.4324198  86.5017615  18.1601706  73.9152921  87.8186100
  17.6751763  72.1107611  75.0510843  17.9277284  71.5889133  74.2894306
  16.7376322  71.9473757  75.1537527  22.7195046  71.1143390  82.8585586
  23.5058135  70.6962813  82.5076003  22.9833750  72.0189482  83.0267235
  22.8905123  76.5516240  77.5574243  22.2550956  76.6250866  78.2695148
  22.5602529  77.1409839  76.8793322  28.1203473  71.0518623  83.7618565
  28.8528645  70.4817840  83.9956394  27.3642828  70.6640223  84.2025070
  17.3948052  74.0135717  77.2535218  17.2784310  73.3380621  77.9216302
  17.5050311  73.5268091  76.4367371  19.7379592  73.4745864  80.9581907
  19.3737800  72.9476485  81.6694829  20.5946708  73.0844333  80.7848393
  25.6428893  64.7640197  88.2213173  25.3112218  65.6335608  87.9974388
  25.0474507  64.4476481  88.9007204  19.3785079  68.5035764  75.9543256
  19.5459482  69.3716000  76.3213727  19.1882249  68.6663046  75.0304545
  22.1360413  76.9652743  87.6209086  21.8361136  77.8677782  87.5124893
  21.7911472  76.6984926  88.4730239  15.5872894  73.4166540  83.6545790
  14.6623391  73.2842754  83.8623482  15.8357307  74.1960759  84.1515733
  25.5357556  69.4835283  85.3006523  24.6274434  69.4150692  85.0065284
  25.4845152  69.9607228  86.1288349  19.3574300  70.9593422  76.9389922
  19.2373926  71.4050472  77.7775403  18.6626889  71.3078739  76.3803461
  12.9481705  73.0599813  84.4889579  13.0774086  73.3134292  85.4028991
  12.2679156  73.6527521  84.1694235  17.1181192  83.7297063  80.5880054
  17.0405222  84.6804888  80.6668534  16.5142836  83.3842936  81.2454980
  19.6098422  70.9024929  93.2441421  18.8331756  71.4618849  93.2344285
  20.2488985  71.3881712  93.7656291  27.4019203  67.6851722  87.0784397
  26.7593583  67.9784255  86.4324192  26.8974131  67.5704642  87.8837594
  25.0559367  71.4314895  77.7670257  25.9677223  71.6642281  77.5917954
  24.5469014  72.0151939  77.2045335  17.8644795  73.7110382  92.8059388
  18.6059479  74.2495426  92.5294211  17.1581780  74.3376671  92.9630939
  23.3400134  75.8539523  91.4031549  23.7483490  75.4121933  90.6586181
  22.6177396  75.2792150  91.6565742  19.6931204  70.7912129  88.7765106
  20.5392399  71.2151543  88.9199755  19.6329842  70.1345754  89.4703669
  23.6628949  76.4140713  85.1583838  23.0337811  76.5786427  84.4559906
  23.2754611  76.8282323  85.9294802  27.5418181  77.3495151  82.5128202
  26.8569219  77.7294052  81.9625235  27.6262030  77.9590478  83.2460149
  22.8430650  68.4516498  90.4346280  22.5991581  69.2058558  89.8980555
  23.1190580  68.8301845  91.2693527  24.7969112  74.9955110  89.1123545
  25.0086008  75.6386870  88.4357926  24.7498861  74.1617427  88.6445475
  22.3995341  67.6072931  86.0160117  21.5379820  67.9054184  86.3076855
  22.4257776  67.8243330  85.0841150  19.2156911  76.1515121  82.4233923
  19.6795256  76.4302824  81.6338546  18.9513709  75.2498566  82.2407014
  16.1080992  75.6986603  85.3613686  16.6782349  76.1273871  84.7231171
  16.6989104  75.4169187  86.0597872  18.1525797  72.2738274  79.2323488
  18.8549840  72.7259317  79.6997415  17.8206425  71.6322092  79.8603381
  16.6006158  70.8650030  93.6074698  15.9704819  71.5466311  93.8410094
  16.4942246  70.7533112  92.6627836  11.8951131  70.5321826  84.5340622
  11.1050185  70.7879355  84.0580732  12.3862378  71.3470164  84.6392662
  25.9114940  77.8727065  87.2845903  26.7332384  77.4707253  87.0028584
  25.9077343  77.7695300  88.2362018  13.8465876  70.8966406  81.4924098
  13.0497039  71.0085100  82.0107594  13.6191468  71.2353058  80.6264989
  19.6771544  77.4211109  89.4406613  19.7415976  77.8831516  90.2764785
  18.9682468  76.7908474  89.5688923  10.1788834  70.7852317  86.9655613
  10.4296872  71.6699327  87.2313189  10.7148382  70.6056918  86.1930704
  34.0020933  74.2165814  83.6330874  33.2484642  73.6473212  83.4774878
  34.1368475  74.1828478  84.5801509  19.3919561  79.0879216  79.3085593
  19.2565236  79.9330752  79.7370441  19.9329374  79.2898494  78.5451527
  15.8786901  65.1670796  95.9699949  15.4853847  64.6136995  96.6447593
  16.6953041  65.4781375  96.3606466  12.8448959  76.6054654  79.8813519
  13.3573479  77.3997905  80.0319083  13.4971672  75.9080945  79.8147120
  14.6543843  79.7220411  81.9636272  14.8310472  80.6438375  81.7757256
  15.4500677  79.4078830  82.3930651  18.7954862  66.5828675  93.5620205
  19.5364575  67.1835828  93.4824668  19.0272785  65.8406313  93.0038248
  13.9396200  71.7685042  91.8398435  13.8249715  70.8670300  92.1405534
  13.0840718  72.0148739  91.4883251  21.0188038  79.7102783  93.4385935
  20.5751892  78.9239161  93.1206840  21.6805251  79.8981933  92.7729826
  15.7775159  81.2398584  87.9646614  16.3282584  81.1115648  87.1923608
  14.9386635  81.5393473  87.6141507  23.1169276  79.9905583  91.4667337
  23.0987751  80.8114464  90.9747606  24.0389196  79.8659658  91.6917478
  19.5742330  77.5049712  92.3090845  20.1070667  76.7438000  92.0790153
  19.0456411  77.2123364  93.0515000  22.7412025  62.6109778  87.8384487
  22.3976294  63.5011420  87.7623597  23.1090988  62.4211436  86.9754072
  10.8097876  74.9343309  80.6573089  11.6473098  75.3440317  80.4406797
  10.9876143  73.9942751  80.6273283  22.7062308  72.6018389  76.3456922
  22.1908931  73.3722994  76.5845309  22.4339616  71.9283525  76.9689983
  20.2909419  67.4468090  81.4042160  19.4351015  67.0574940  81.2247799
  20.7036370  67.5260051  80.5441946  21.8208565  64.9814433  85.8033720
  21.3173361  64.9444568  84.9901525  22.1139172  65.8907176  85.8630377
  18.0651451  65.0653163  84.8099902  18.9304448  64.8695972  84.4505791
  18.1328960  64.8363515  85.7369259  27.6796582  75.3550744  78.2810095
  26.9026025  75.0161903  77.8365258  28.3588063  75.3603367  77.6065061
  22.4948611  70.4745481  78.1716703  22.1898746  70.7891631  79.0226846
  23.4479053  70.5526901  78.2144036  20.9395043  76.6335705  79.8209657
  20.4116404  75.8988464  79.5082895  20.4382545  77.4110381  79.5749625
  25.9187889  74.8284725  84.9376703  25.2611563  75.5183987  85.0256832
  26.7228288  75.2181157  85.2810690  15.6713770  67.2955371  82.1816269
  16.2457522  67.0730552  81.4489462  16.2584753  67.3644065  82.9344870
  24.7293347  73.1829098  82.9880645  25.2425229  73.8159090  83.4902355
  25.3794571  72.5830293  82.6224005  15.9983357  69.3259832  76.2012154
  15.1620670  69.6634518  76.5221429  15.8588127  69.1908812  75.2639291
  17.9736438  64.1696620  80.9091338  17.3200850  63.8545637  80.2847953
  17.9316912  63.5472360  81.6351161  19.0847643  74.4515915  72.8244630
  18.1774705  74.2205168  73.0235779  19.5818675  73.6553534  73.0118612
  21.9915722  83.1613422  75.7441316  21.3177420  83.4645119  76.3526274
  22.3781544  83.9642502  75.3946773  21.2074178  70.6578553  85.2338986
  20.2896740  70.8793500  85.0760674  21.6234322  70.7324864  84.3750693
  21.9909226  72.0569969  80.3641666  22.7381045  72.5691366  80.0548788
  22.2600816  71.7354022  81.2246060  20.2635876  74.5528510  77.3468620
  19.3547096  74.2687543  77.4441090  20.2930960  74.9727588  76.4871927
  25.4955144  78.1635099  81.1159788  25.0417471  77.3226009  81.1724978
  24.8649110  78.7996498  81.4534568  24.4388063  69.0927085  82.3460455
  23.7010820  68.5804472  82.6770698  24.6914837  68.6527467  81.5343732
  23.9388083  80.0011596  82.0509606  24.2311057  80.5616653  81.3321972
  24.4486704  80.2940157  82.8062765  24.5399691  61.8703337  82.9402225
  24.8458567  61.0100701  82.6528140  25.2652295  62.4620958  82.7401218
  10.8324047  72.2734024  81.3283822  10.6348446  71.6803385  80.6034889
  10.2770711  71.9686234  82.0459761  18.8120770  72.1657130  83.4478416
  18.8669380  71.2130967  83.3720892  18.0011972  72.3216569  83.9319714
  19.9611964  76.0937253  74.6856699  19.5231394  75.3773112  74.2262336
  20.7022405  76.3213368  74.1241790  16.7513130  70.7834190  81.2068794
  15.9380996  71.0828361  81.6133987  17.2472124  70.3889879  81.9243277
  18.9021708  80.7791947  83.1403059  18.8597887  81.0052793  82.2111591
  19.8184407  80.5455322  83.2888860  22.3487342  71.2476015  90.0383688
  22.7036730  71.4747488  90.8978154  22.9959473  71.5794391  89.4160944
  28.0785079  74.3694450  80.7433017  27.9402977  74.5596046  79.8154207
  27.7221298  75.1313833  81.2001069  16.2427205  68.3552546  86.8230029
  16.8826584  68.2141305  86.1252993  15.4104736  68.0687059  86.4468631
  28.1054458  76.4370977  85.7544289  28.5390965  76.3446267  86.6027343
  28.8186039  76.4128478  85.1164305  17.0187509  77.6554976  82.9365022
  17.8128107  77.1605296  82.7347597  16.3079201  77.1272839  82.5732727
  21.8382353  80.0373072  87.2877390  21.8919376  80.6064008  88.0555105
  20.9697135  80.2074957  86.9231427  13.3270272  71.7998058  79.0124775
  12.3967860  71.7382513  79.2294737  13.4227744  71.2774011  78.2161416
  13.2455821  68.3252871  81.6003016  13.5062639  69.2398204  81.4912177
  14.0672994  67.8577313  81.7499629  14.7180747  69.7390628  88.7701841
  15.3903800  69.5307990  88.1214490  13.8910533  69.5412714  88.3307073
  28.9670008  76.4794678  88.2877174  29.1605898  77.3840489  88.5336449
  28.8670626  76.0202097  89.1215759  20.6206319  66.3652569  90.7867502
  19.9734234  67.0642518  90.6931978  21.3907334  66.7988713  91.1543750
  24.0285117  76.6301421  93.8618055  23.8770623  76.4011973  92.9448139
  24.0189796  77.5872022  93.8749400  20.7970453  74.2033334  88.8464321
  21.7262513  74.3544493  88.6733289  20.3761483  74.2917354  87.9912968
  19.5958785  78.2283998  86.6162859  19.4569871  77.8602782  87.4888797
  18.8073381  78.7431637  86.4446817  20.1906937  83.3293095  77.9588396
  20.3658693  82.8581138  78.7734018  19.5039725  83.9558861  78.1869656
  21.1464000  77.6065601  84.0051697  20.8113833  77.5666371  84.9009347
  20.6467946  76.9410317  83.5322107  15.1208244  73.0133231  89.5304278
  14.9828042  72.2813470  90.1315817  16.0313167  72.9242131  89.2488466
  24.0823192  74.9521635  74.2788756  23.4652362  74.2268463  74.1821809
  23.6139680  75.7130995  73.9355831  17.7490545  72.7253190  89.0187958
  18.4590163  72.0846382  88.9774576  17.7059853  72.9766085  89.9414138
  25.7377323  79.6620543  91.9394537  25.6789870  78.9779764  91.2725120
  26.1396842  80.4039533  91.4875163  16.4619479  69.7118408  90.8383597
  15.9256836  69.2609146  91.4905193  15.8736187  69.8464317  90.0954061
  14.7568022  86.4782457  84.7328256  14.9964620  87.1100981  85.4107274
  13.9137219  86.1270497  85.0193615  15.8721738  69.1707059  73.4010061
  14.9951204  69.0495860  73.0372307  16.3479491  68.3793138  73.1488949
  25.7394731  77.6260127  90.1708516  24.8521509  77.2886049  90.2934915
  26.3093282  76.8943159  90.4077282   7.3923878  73.9584219  83.4951568
   8.0794918  73.6445949  82.9072583   7.2372006  74.8625584  83.2218819
  12.1958600  68.8474416  87.9236592  12.1116789  68.2400085  87.1887001
  11.3741306  69.3383434  87.9246088  19.2695884  82.2861580  87.1369760
  19.1966056  83.0916551  87.6489064  18.8273277  82.4853546  86.3117781
  19.0585664  81.5233350  80.6472581  18.2753186  82.0655030  80.7410806
  19.7578409  82.0407329  81.0466822  22.3682314  67.3327979  83.2906787
  22.8651013  66.5797942  82.9707857  21.5969295  67.3692296  82.7249996
  30.2212071  73.0368345  84.9325078  30.2101947  73.9193060  84.5619011
  29.3529451  72.6839896  84.7379615  21.7294568  82.1848414  89.2927918
  22.4422540  82.8195879  89.2203820  21.2384596  82.2812280  88.4767920
  23.4512094  76.0899666  80.8645210  22.5168373  76.2101129  80.6949914
  23.6288763  75.1872133  80.6005220  18.9517283  69.4745362  83.0178471
  18.5815070  68.9216403  83.7059377  19.4476375  68.8703496  82.4653471
  26.8384646  71.9316986  81.3995244  27.3045098  72.7644977  81.3255547
  27.2892146  71.4661967  82.1040503  16.7806481  79.9342857  90.1133489
  17.4815941  80.5679340  90.2662883  16.3101596  80.2757589  89.3529128
  24.9060877  78.2760807  78.3981396  25.1820721  78.1617402  79.3075270
  24.0365376  77.8778292  78.3593569  24.8101309  64.2997573  85.4386145
  23.8964388  64.5301800  85.6068352  25.2394410  64.3836017  86.2900178
  24.5807767  72.4887465  87.9386040  23.9279217  72.7363372  87.2838492
  24.9588147  71.6751603  87.6048517  21.5414941  82.5247158  82.0414210
  21.7237335  81.7068814  82.5041962  22.3647927  82.7414850  81.6039100
  21.8757106  81.4515343  79.3029258  22.4044873  80.9407798  78.6899420
  22.1385326  81.1357873  80.1674791  20.6295340  73.2307276  94.4252077
  19.9535977  73.1301405  95.0954452  21.4522974  73.0746489  94.8888074
  12.3774199  79.4679212  87.0464592  12.9627636  78.7222900  87.1792496
  12.1799038  79.7783169  87.9301256  15.2312854  82.5030460  82.0627034
  14.5623230  82.9876587  81.5791074  15.0925724  82.7499680  82.9770413
   6.9691854  72.0384812  85.7669035   7.0075953  71.5048403  86.5606153
   6.4632147  71.5120018  85.1480012  19.3718123  84.5374203  88.6609693
  19.9236431  84.7005825  89.4258778  19.7124316  85.1278641  87.9889717
  14.3482616  66.8849353  89.2631577  14.4123943  67.7464184  88.8508975
  14.2849736  66.2723355  88.5303936  13.8234889  68.9572486  92.9104612
  14.4506928  68.5749563  93.5242136  12.9662808  68.7386687  93.2760304
  24.2228997  79.3635461  94.5158347  24.7668901  79.9765419  94.0213302
  23.6415842  79.9215039  95.0325360  10.6000431  70.7648915  78.8422966
  10.8953873  69.8559593  78.7890020   9.6988467  70.7436654  78.5203969
  22.5086510  82.4856179  85.6473375  22.3837650  81.6845919  85.1384320
  23.1665601  82.9802372  85.1587345  14.1294678  68.8404911  84.8250515
  13.4081264  69.4540879  84.6857988  14.9187934  69.3762676  84.7467161
  24.5721419  80.2865199  87.2752925  23.6251754  80.1670550  87.2031252
  24.9204192  79.3987697  87.3579186  16.9320992  66.1759338  91.0991167
  17.4555394  66.4221634  91.8617476  16.7133325  67.0079373  90.6794304
  12.3288273  68.4463012  78.9662292  12.0000979  67.5660391  78.7837397
  12.6827644  68.3910681  79.8538681  21.5767852  80.0817915  83.4757277
  21.4292814  79.1534622  83.6564847  22.4021345  80.1038006  82.9914352
  15.4430096  68.7335982  79.3337769  15.7826169  69.2621903  78.6116378
  15.8902217  69.0716388  80.1096336  25.1801974  80.9046474  84.5622150
  26.1048521  80.6989335  84.4246601  25.0117277  80.6562875  85.4711491
  18.1373537  67.1173033  88.7840837  17.7970357  66.3180846  89.1861517
  17.4312543  67.4174744  88.2117670  18.7890009  64.2022345  87.2368160
  19.6116078  63.7282823  87.1147051  19.0328072  64.9812829  87.7366847
  17.4298243  67.2310604  77.5331062  18.1506606  67.6091856  77.0294779
  16.8063547  67.9499480  77.6366040  21.5729366  67.9355753  78.4689394
  21.7892981  68.8180391  78.1678222  21.0923433  67.5441966  77.7395036
  16.3128588  70.8941466  85.0460139  16.1673168  71.2081769  85.9384420
  15.8353791  71.5126366  84.4931038  18.1724970  67.8844014  85.0941028
  18.1586539  66.9885107  84.7573326  18.8897399  67.8914678  85.7279315
  20.0251101  68.3181354  87.1394156  19.7668879  69.2398425  87.1378486
  19.4936142  67.9211789  87.8294620  24.9697290  81.4232141  79.9184241
  25.1434167  80.8578564  79.1658094  25.4626181  82.2233036  79.7363731
  10.7874250  73.4346810  87.9847800  10.2427718  74.2106618  88.1168074
  11.6653600  73.7817615  87.8266922  17.5761866  66.7658394  80.3628599
  17.6977778  65.8375040  80.5619486  17.2863909  66.7797080  79.4506914
  20.4453057  64.4513305  83.4995318  20.4674754  64.5152638  82.5447298
  20.8621116  63.6117813  83.6935825  30.8236681  74.1868564  81.5374541
  31.2667827  73.4375889  81.1393664  29.9463191  74.1778700  81.1548273
  25.9572462  80.7398906  77.0181140  26.6523367  81.3605598  77.2368454
  26.2995613  79.8894257  77.2933517  11.5740272  72.5616707  90.8777957
  10.8322008  72.7099342  91.4642587  11.2533016  72.8224972  90.0144706
  27.8563886  78.1898611  78.5468470  28.3815210  78.5285884  77.8217790
  27.7686238  77.2545626  78.3631605  19.5183934  82.1032685  90.6758347
  19.8271061  81.8581832  91.5481047  20.3159416  82.3079323  90.1877217
  19.5404546  84.2570594  82.9063724  19.1009537  83.7646973  83.5996580
  20.2912663  83.7143562  82.6655799  12.0196885  80.4482135  82.9088352
  12.8454905  80.1485907  82.5286995  11.6690937  79.6789758  83.3578140
  16.9878418  79.8008603  84.9786025  16.3658428  79.1379309  84.6788253
  17.6583285  79.8269735  84.2959673  10.2205490  78.3668462  83.8677285
   9.3837399  77.9390636  83.6861286  10.1929136  78.5600905  84.8048076
  17.0602946  68.2790392  94.5718531  17.1091101  69.1552514  94.1896301
  17.6025460  67.7367785  93.9990174  27.5457792  78.8231515  93.8519668
  26.7553335  78.8055654  93.3124168  27.3091146  79.3619808  94.6068705
  27.6655667  75.6723981  91.1652397  27.7153672  75.5073989  92.1067920
  27.5569590  74.8051240  90.7750278  16.5491925  78.3512527  78.4544486
  16.6980046  79.0347991  77.8011158  17.3558369  78.3317617  78.9693941
  24.9559429  71.6554909  92.4811704  25.8569292  71.5161374  92.1895701
  25.0307404  71.8209364  93.4209881  19.2902234  69.0321764  91.3264890
  18.4205544  69.3255330  91.0547478  19.5261715  69.6162209  92.0472153
  29.1673864  78.0920923  91.4094418  28.8758672  78.4550903  92.2457879
  28.5545995  77.3787931  91.2307750  30.3669546  75.6573802  83.9296989
  31.2016437  76.0963606  84.0934549  30.5028675  75.1812456  83.1105234
  27.4161052  73.2153537  89.8774476  27.8915173  73.4081184  89.0693328
  26.4926617  73.2712723  89.6317860  14.3044558  74.3777704  79.4605555
  14.0590600  73.4740034  79.6585765  14.4740473  74.3794855  78.5185033
  21.9941268  65.2501381  88.8430310  22.5123212  65.9862408  88.5176799
  21.6396401  65.5565374  89.6777069  13.5740206  70.1106062  76.9591716
  12.8809451  70.1850417  76.3031752  13.3291958  69.3466406  77.4813233
  22.2453862  61.6701663  84.3631207  22.5255616  61.0024852  84.9891633
  23.0304469  61.8630759  83.8505871  20.0487331  80.8460657  75.9256233
  19.4761298  81.4650844  75.4726705  20.6220125  81.3960019  76.4596155
  26.1162721  70.0919297  88.1102782  27.0680144  70.1917395  88.1315006
  25.9466171  69.2997566  88.6200866  24.1377100  67.1774881  88.2962183
  23.5427032  67.4579893  87.6008671  23.8526797  67.6668782  89.0678924
  23.2684591  81.1297807  77.0564815  24.2015264  81.0643369  77.2597691
  23.1807804  81.9654074  76.5979348  25.8972607  80.4463678  74.0168763
  25.8186239  80.1123541  74.9104521  26.7182274  80.9385446  74.0160235
  28.5950799  73.3125417  87.2245082  28.5627119  72.3741418  87.4104765
  29.2051422  73.3909454  86.4910906  20.4334129  72.1821470  73.2672286
  21.3793234  72.0527678  73.3360704  20.0548374  71.4436132  73.7441714
  28.7445287  70.1036460  87.2703365  28.2284336  69.3194917  87.0833294
  29.6285236  69.7755177  87.4349884  26.4056014  63.8477476  83.2299177
  26.2080835  63.5392564  84.1142509  27.0155720  64.5739115  83.3597107
  34.4127348  74.3741424  86.3651118  35.1430737  74.1126712  86.9258822
  33.8034294  73.6370146  86.4053186  32.4942646  72.5149286  86.9625570
  31.7675809  72.3805251  86.3542061  32.0789932  72.8226115  87.7682288
  20.3172822  76.2339216  94.7272943  21.2375831  76.4117815  94.9212989
  20.2822405  75.2895262  94.5752642  18.6177047  70.1071446  73.2027171
  17.7108502  69.8104559  73.2789884  18.8953028  69.8101265  72.3361457
   9.5354987  71.4277810  83.6526217   9.2157771  70.5743118  83.3600591
   8.9888415  71.6426388  84.4084185  13.3134894  74.1440251  87.3695724
  13.5320904  75.0757359  87.3883758  13.7260668  73.7848225  88.1550528
  20.2339112  64.6508336  79.3571412  19.4239841  64.3055421  79.7326658
  20.9223529  64.3415880  79.9459024  22.1629661  63.7286383  80.9795709
  22.7160699  64.1481836  81.6385732  22.3999747  62.8022131  81.0218665
  18.1862760  69.7173457  96.7598473  18.0859487  70.6667814  96.6910564
  17.9684302  69.3891695  95.8874543  17.3875831  66.9658382  73.3439150
  18.2494995  67.2913280  73.6034967  17.5726175  66.1789878  72.8312216
   9.4043247  75.0480721  85.6219339   8.7106718  74.6334674  85.1089293
  10.1516238  75.0901258  85.0252758  25.5408468  65.8386908  80.4874373
  24.9607137  66.4971712  80.1052425  25.2744400  65.0164253  80.0761791
  23.9912034  65.2391966  82.6895693  24.4911812  65.3508500  81.8810012
  24.6347642  64.9353019  83.3296502  18.0494030  73.1470595  95.5763534
  17.5661112  73.9470956  95.7827423  18.1354969  73.1578540  94.6230978
  11.3179989  74.9798975  83.4985354  11.2950678  75.0786662  82.5467237
  11.6280626  75.8264126  83.8202520  13.9767367  77.0375130  87.6131968
  14.9310621  77.0059072  87.5461900  13.7779891  76.5765754  88.4282194
  14.5666749  75.6076246  90.1802766  15.3859638  76.1020325  90.2037603
  14.8403557  74.6908214  90.1520333  24.3233346  67.9986998  79.5430721
  23.4359201  68.2836649  79.3250916  24.7387335  67.8380762  78.6957998
  27.6747882  68.0233519  83.2585061  28.4508272  68.5129972  83.5309677
  26.9496016  68.4491574  83.7156930  30.1120440  68.7361139  84.3159001
  30.7064931  68.4956875  83.6052309  30.1847024  68.0168269  84.9432537
  12.3317596  82.5794750  84.6302166  12.1972064  81.8195151  84.0640164
  11.9149658  83.3035649  84.1630955  23.4676559  77.7631673  73.6378741
  24.1712409  77.9681676  74.2536397  22.7439208  78.3308435  73.9027825
  24.2974369  73.5141534  79.7581011  24.2409571  73.9710086  78.9188644
  24.8502712  72.7532219  79.5803854  28.1079175  69.3031266  80.5831131
  27.8516110  68.9027902  81.4139339  27.4832043  70.0175060  80.4581270
  32.4191513  72.0427340  83.0902422  31.8591071  72.1120529  83.8633984
  31.8135017  71.8668324  82.3701919  15.4886722  83.4764067  84.8420609
  15.3719106  84.4209499  84.7399299  14.6679168  83.1737628  85.2306408
  25.3763257  78.2014202  75.6877201  26.2108860  77.7695401  75.5054676
  25.2147599  78.0296216  76.6154096  25.0309149  74.7046316  77.0533541
  24.9757953  74.5390587  76.1121985  24.4055204  75.4122349  77.2095730
   9.8201664  69.9414380  90.8794963  10.4660527  69.4313334  91.3682188
   9.6118815  70.6783062  91.4538388  22.3455056  77.0095228  96.3787103
  23.2146216  77.1835880  96.0173738  21.8661807  77.8289644  96.2562833
  18.3405274  64.2054425  76.6318859  18.3283944  65.1496265  76.7887130
  19.2328696  64.0224570  76.3378320  16.5141236  84.1292329  88.0576537
  17.4168483  84.1615939  88.3743032  16.2878606  83.1992779  88.0722873
  18.2694838  82.8823315  84.7186616  17.3190469  82.8825177  84.6050988
  18.5727324  82.1356050  84.2022650  22.1557394  60.7997201  80.8864796
  21.3889789  60.2455688  81.0321478  22.5668099  60.8719070  81.7478947
  14.1599155  67.0881997  94.9769977  15.0230616  66.7318802  95.1873302
  13.5864565  66.7495892  95.6645381  34.0047532  88.7183853  85.7832378
  34.6425942  88.5990601  85.0795718  33.8868375  89.6664697  85.8420330
  30.8137238  88.6711282  85.7193903  30.4755749  88.5552346  84.8314438
  31.6827006  88.2702447  85.6994909  26.6724054  90.5246758  81.7090794
  26.1088919  90.4336695  80.9407082  26.5576449  89.7046662  82.1893286
  31.2957021  89.8246133  91.6780108  31.2845662  89.4298932  90.8060612
  31.4577660  89.0912206  92.2713880  24.2188486  92.0197950  84.5475014
  25.0109777  91.6788774  84.1321314  24.4585136  92.1292925  85.4677168
  32.2523612  94.1917726  77.0205259  31.6011592  94.7771806  76.6339272
  33.0467975  94.7223921  77.0800296  26.1779239  91.2806863  77.4192393
  26.9510115  90.7335850  77.2805269  26.5304638  92.1451112  77.6306854
  28.0164282  92.6083245  90.6259292  27.7254148  93.5128876  90.5105959
  28.6521266  92.6499773  91.3403362  28.9420489  89.9860094  87.2160652
  29.5384061  89.7616116  86.5017615  28.9995460  89.2444839  87.8186100
  28.5145517  87.4399529  75.0510843  28.7671038  86.9181050  74.2894306
  27.5770076  87.2765674  75.1537527  33.5588800  86.4435307  82.8585586
  34.3451889  86.0254730  82.5076003  33.8227504  87.3481399  83.0267235
  33.7298877  91.8808158  77.5574243  33.0944710  91.9542784  78.2695148
  33.3996284  92.4701756  76.8793322  38.9597227  86.3810541  83.7618565
  39.6922399  85.8109757  83.9956394  38.2036583  85.9932141  84.2025070
  28.2341806  89.3427635  77.2535218  28.1178064  88.6672538  77.9216302
  28.3444066  88.8560009  76.4367371  30.5773347  88.8037782  80.9581907
  30.2131554  88.2768403  81.6694829  31.4340463  88.4136251  80.7848393
  36.4822648  80.0932115  88.2213173  36.1505972  80.9627526  87.9974388
  35.8868261  79.7768399  88.9007204  30.2178834  83.8327682  75.9543256
  30.3853236  84.7007918  76.3213727  30.0276003  83.9954963  75.0304545
  32.9754167  92.2944661  87.6209086  32.6754890  93.1969699  87.5124893
  32.6305227  92.0276844  88.4730239  26.4266649  88.7458457  83.6545790
  25.5017145  88.6134672  83.8623482  26.6751062  89.5252677  84.1515733
  36.3751311  84.8127201  85.3006523  35.4668188  84.7442609  85.0065284
  36.3238907  85.2899146  86.1288349  30.1968055  86.2885339  76.9389922
  30.0767680  86.7342390  77.7775403  29.5020643  86.6370657  76.3803461
  23.7875460  88.3891731  84.4889579  23.9167841  88.6426210  85.4028991
  23.1072911  88.9819439  84.1694235  27.9574947  99.0588981  80.5880054
  27.8798977 100.0096806  80.6668534  27.3536591  98.7134853  81.2454980
  30.4492177  86.2316846  93.2441421  29.6725511  86.7910767  93.2344285
  31.0882740  86.7173629  93.7656291  38.2412957  83.0143639  87.0784397
  37.5987338  83.3076172  86.4324192  37.7367886  82.8996560  87.8837594
  35.8953121  86.7606812  77.7670257  36.8070977  86.9934199  77.5917954
  35.3862768  87.3443857  77.2045335  28.7038549  89.0402300  92.8059388
  29.4453233  89.5787344  92.5294211  27.9975534  89.6668588  92.9630939
  34.1793889  91.1831440  91.4031549  34.5877245  90.7413851  90.6586181
  33.4571150  90.6084068  91.6565742  30.5324959  86.1204047  88.7765106
  31.3786154  86.5443461  88.9199755  30.4723596  85.4637671  89.4703669
  34.5022703  91.7432631  85.1583838  33.8731566  91.9078345  84.4559906
  34.1148365  92.1574240  85.9294802  38.3811935  92.6787069  82.5128202
  37.6962973  93.0585970  81.9625235  38.4655785  93.2882395  83.2460149
  33.6824404  83.7808415  90.4346280  33.4385336  84.5350476  89.8980555
  33.9584335  84.1593763  91.2693527  35.6362867  90.3247028  89.1123545
  35.8479762  90.9678788  88.4357926  35.5892615  89.4909344  88.6445475
  33.2389096  82.9364848  86.0160117  32.3773575  83.2346102  86.3076855
  33.2651530  83.1535247  85.0841150  30.0550665  91.4807039  82.4233923
  30.5189011  91.7594742  81.6338546  29.7907463  90.5790484  82.2407014
  26.9474746  91.0278520  85.3613686  27.5176103  91.4565789  84.7231171
  27.5382858  90.7461105  86.0597872  28.9919551  87.6030191  79.2323488
  29.6943595  88.0551235  79.6997415  28.6600180  86.9614010  79.8603381
  27.4399913  86.1941948  93.6074698  26.8098573  86.8758229  93.8410094
  27.3336001  86.0825030  92.6627836  22.7344885  85.8613744  84.5340622
  21.9443939  86.1171272  84.0580732  23.2256133  86.6762082  84.6392662
  36.7508695  93.2018983  87.2845903  37.5726138  92.7999170  87.0028584
  36.7471098  93.0987217  88.2362018  24.6859631  86.2258323  81.4924098
  23.8890794  86.3377017  82.0107594  24.4585223  86.5644975  80.6264989
  30.5165298  92.7503026  89.4406613  30.5809731  93.2123434  90.2764785
  29.8076222  92.1200391  89.5688923  21.0182588  86.1144234  86.9655613
  21.2690627  86.9991244  87.2313189  21.5542137  85.9348836  86.1930704
  44.8414688  89.5457732  83.6330874  44.0878396  88.9765130  83.4774878
  44.9762229  89.5120396  84.5801509  30.2313316  94.4171134  79.3085593
  30.0958991  95.2622670  79.7370441  30.7723128  94.6190412  78.5451527
  26.7180655  80.4962714  95.9699949  26.3247601  79.9428912  96.6447593
  27.5346796  80.8073292  96.3606466  23.6842713  91.9346572  79.8813519
  24.1967234  92.7289822  80.0319083  24.3365426  91.2372862  79.8147120
  25.4937598  95.0512328  81.9636272  25.6704226  95.9730293  81.7757256
  26.2894431  94.7370747  82.3930651  29.6348616  81.9120593  93.5620205
  30.3758330  82.5127746  93.4824668  29.8666539  81.1698231  93.0038248
  24.7789954  87.0976960  91.8398435  24.6643470  86.1962217  92.1405534
  23.9234472  87.3440657  91.4883251  31.8581792  95.0394700  93.4385935
  31.4145646  94.2531079  93.1206840  32.5199006  95.2273851  92.7729826
  26.6168913  96.5690502  87.9646614  27.1676339  96.4407565  87.1923608
  25.7780389  96.8685391  87.6141507  33.9563030  95.3197500  91.4667337
  33.9381506  96.1406381  90.9747606  34.8782950  95.1951576  91.6917478
  30.4136084  92.8341630  92.3090845  30.9464421  92.0729918  92.0790153
  29.8850166  92.5415282  93.0515000  33.5805779  77.9401696  87.8384487
  33.2370049  78.8303337  87.7623597  33.9484742  77.7503353  86.9754072
  21.6491630  90.2635226  80.6573089  22.4866852  90.6732235  80.4406797
  21.8269898  89.3234668  80.6273283  33.5456062  87.9310307  76.3456922
  33.0302686  88.7014912  76.5845309  33.2733371  87.2575443  76.9689983
  31.1303173  82.7760008  81.4042160  30.2744770  82.3866858  81.2247799
  31.5430125  82.8551968  80.5441946  32.6602320  80.3106351  85.8033720
  32.1567115  80.2736486  84.9901525  32.9532927  81.2199094  85.8630377
  28.9045206  80.3945081  84.8099902  29.7698202  80.1987889  84.4505791
  28.9722715  80.1655432  85.7369259  38.5190336  90.6842662  78.2810095
  37.7419779  90.3453821  77.8365258  39.1981817  90.6895285  77.6065061
  33.3342365  85.8037399  78.1716703  33.0292501  86.1183548  79.0226846
  34.2872807  85.8818819  78.2144036  31.7788797  91.9627622  79.8209657
  31.2510159  91.2280382  79.5082895  31.2776300  92.7402299  79.5749625
  36.7581643  90.1576643  84.9376703  36.1005318  90.8475904  85.0256832
  37.5622042  90.5473075  85.2810690  26.5107525  82.6247289  82.1816269
  27.0851277  82.4022470  81.4489462  27.0978507  82.6935983  82.9344870
  35.5687102  88.5121015  82.9880645  36.0818984  89.1451007  83.4902355
  36.2188326  87.9122211  82.6224005  26.8377112  84.6551750  76.2012154
  26.0014424  84.9926436  76.5221429  26.6981882  84.5200729  75.2639291
  28.8130192  79.4988537  80.9091338  28.1594605  79.1837555  80.2847953
  28.7710667  78.8764278  81.6351161  29.9241397  89.7807833  72.8244630
  29.0168459  89.5497086  73.0235779  30.4212429  88.9845452  73.0118612
  32.8309476  98.4905340  75.7441316  32.1571175  98.7937037  76.3526274
  33.2175298  99.2934420  75.3946773  32.0467933  85.9870471  85.2338986
  31.1290494  86.2085418  85.0760674  32.4628076  86.0616782  84.3750693
  32.8302981  87.3861887  80.3641666  33.5774800  87.8983284  80.0548788
  33.0994570  87.0645939  81.2246060  31.1029631  89.8820427  77.3468620
  30.1940850  89.5979460  77.4441090  31.1324715  90.3019506  76.4871927
  36.3348898  93.4927017  81.1159788  35.8811225  92.6517927  81.1724978
  35.7042865  94.1288415  81.4534568  35.2781818  84.4219003  82.3460455
  34.5404575  83.9096389  82.6770698  35.5308591  83.9819385  81.5343732
  34.7781837  95.3303514  82.0509606  35.0704812  95.8908571  81.3321972
  35.2880458  95.6232075  82.8062765  35.3793445  77.1995255  82.9402225
  35.6852322  76.3392618  82.6528140  36.1046050  77.7912875  82.7401218
  21.6717801  87.6025942  81.3283822  21.4742201  87.0095302  80.6034889
  21.1164465  87.2978152  82.0459761  29.6514525  87.4949048  83.4478416
  29.7063135  86.5422884  83.3720892  28.8405727  87.6508487  83.9319714
  30.8005719  91.4229171  74.6856699  30.3625149  90.7065030  74.2262336
  31.5416159  91.6505286  74.1241790  27.5906885  86.1126108  81.2068794
  26.7774750  86.4120278  81.6133987  28.0865879  85.7181797  81.9243277
  29.7415463  96.1083865  83.1403059  29.6991641  96.3344711  82.2111591
  30.6578161  95.8747239  83.2888860  33.1881096  86.5767932  90.0383688
  33.5430484  86.8039405  90.8978154  33.8353228  86.9086309  89.4160944
  38.9178833  89.6986368  80.7433017  38.7796732  89.8887964  79.8154207
  38.5615052  90.4605751  81.2001069  27.0820960  83.6844463  86.8230029
  27.7220339  83.5433222  86.1252993  26.2498490  83.3978977  86.4468631
  38.9448213  91.7662895  85.7544289  39.3784720  91.6738184  86.6027343
  39.6579794  91.7420396  85.1164305  27.8581263  92.9846894  82.9365022
  28.6521862  92.4897214  82.7347597  27.1472956  92.4564757  82.5732727
  32.6776108  95.3664989  87.2877390  32.7313130  95.9355926  88.0555105
  31.8090889  95.5366874  86.9231427  24.1664027  87.1289975  79.0124775
  23.2361615  87.0674431  79.2294737  24.2621499  86.6065928  78.2161416
  24.0849576  83.6544788  81.6003016  24.3456393  84.5690122  81.4912177
  24.9066748  83.1869231  81.7499629  25.5574501  85.0682545  88.7701841
  26.2297555  84.8599908  88.1214490  24.7304288  84.8704631  88.3307073
  39.8063763  91.8086596  88.2877174  39.9999653  92.7132406  88.5336449
  39.7064381  91.3494015  89.1215759  31.4600073  81.6944486  90.7867502
  30.8127988  82.3934436  90.6931978  32.2301089  82.1280630  91.1543750
  34.8678871  91.9593339  93.8618055  34.7164378  91.7303890  92.9448139
  34.8583551  92.9163940  93.8749400  31.6364208  89.5325251  88.8464321
  32.5656268  89.6836411  88.6733289  31.2155238  89.6209272  87.9912968
  30.4352539  93.5575916  86.6162859  30.2963625  93.1894700  87.4888797
  29.6467136  94.0723555  86.4446817  31.0300691  98.6585012  77.9588396
  31.2052447  98.1873055  78.7734018  30.3433479  99.2850778  78.1869656
  31.9857755  92.9357518  84.0051697  31.6507587  92.8958288  84.9009347
  31.4861700  92.2702234  83.5322107  25.9601999  88.3425148  89.5304278
  25.8221796  87.6105387  90.1315817  26.8706922  88.2534049  89.2488466
  34.9216946  90.2813553  74.2788756  34.3046117  89.5560381  74.1821809
  34.4533435  91.0422913  73.9355831  28.5884299  88.0545108  89.0187958
  29.2983918  87.4138300  88.9774576  28.5453607  88.3058003  89.9414138
  36.5771078  94.9912461  91.9394537  36.5183624  94.3071681  91.2725120
  36.9790596  95.7331451  91.4875163  27.3013233  85.0410326  90.8383597
  26.7650590  84.5901064  91.4905193  26.7129942  85.1756234  90.0954061
  25.5961777 101.8074375  84.7328256  25.8358375 102.4392899  85.4107274
  24.7530973 101.4562415  85.0193615  26.7115492  84.4998977  73.4010061
  25.8344958  84.3787778  73.0372307  27.1873245  83.7085055  73.1488949
  36.5788485  92.9552045  90.1708516  35.6915264  92.6177967  90.2934915
  37.1487036  92.2235076  90.4077282  18.2317632  89.2876137  83.4951568
  18.9188672  88.9737867  82.9072583  18.0765761  90.1917501  83.2218819
  23.0352354  84.1766333  87.9236592  22.9510543  83.5692003  87.1887001
  22.2135061  84.6675352  87.9246088  30.1089639  97.6153497  87.1369760
  30.0359810  98.4208469  87.6489064  29.6667032  97.8145463  86.3117781
  29.8979418  96.8525267  80.6472581  29.1146940  97.3946948  80.7410806
  30.5972163  97.3699247  81.0466822  33.2076068  82.6619897  83.2906787
  33.7044768  81.9089859  82.9707857  32.4363050  82.6984214  82.7249996
  41.0605826  88.3660262  84.9325078  41.0495702  89.2484978  84.5619011
  40.1923205  88.0131813  84.7379615  32.5688322  97.5140331  89.2927918
  33.2816294  98.1487796  89.2203820  32.0778351  97.6104197  88.4767920
  34.2905849  91.4191584  80.8645210  33.3562128  91.5393047  80.6949914
  34.4682517  90.5164051  80.6005220  29.7911037  84.8037280  83.0178471
  29.4208825  84.2508320  83.7059377  30.2870129  84.1995413  82.4653471
  37.6778400  87.2608903  81.3995244  38.1438853  88.0936895  81.3255547
  38.1285901  86.7953885  82.1040503  27.6200236  95.2634775  90.1133489
  28.3209695  95.8971258  90.2662883  27.1495351  95.6049506  89.3529128
  35.7454631  93.6052725  78.3981396  36.0214475  93.4909319  79.3075270
  34.8759130  93.2070210  78.3593569  35.6495063  79.6289490  85.4386145
  34.7358143  79.8593717  85.6068352  36.0788165  79.7127934  86.2900178
  35.4201522  87.8179382  87.9386040  34.7672972  88.0655290  87.2838492
  35.7981901  87.0043521  87.6048517  32.3808695  97.8539076  82.0414210
  32.5631090  97.0360731  82.5041962  33.2041681  98.0706768  81.6039100
  32.7150861  96.7807261  79.3029258  33.2438627  96.2699715  78.6899420
  32.9779081  96.4649791  80.1674791  31.4689095  88.5599193  94.4252077
  30.7929732  88.4593323  95.0954452  32.2916728  88.4038407  94.8888074
  23.2167954  94.7971130  87.0464592  23.8021390  94.0514818  87.1792496
  23.0192792  95.1075087  87.9301256  26.0706609  97.8322377  82.0627034
  25.4016984  98.3168505  81.5791074  25.9319479  98.0791598  82.9770413
  17.8085608  87.3676730  85.7669035  17.8469708  86.8340321  86.5606153
  17.3025901  86.8411936  85.1480012  30.2111877  99.8666121  88.6609693
  30.7630185 100.0297742  89.4258778  30.5518071 100.4570559  87.9889717
  25.1876371  82.2141271  89.2631577  25.2517697  83.0756102  88.8508975
  25.1243491  81.6015272  88.5303936  24.6628643  84.2864403  92.9104612
  25.2900682  83.9041481  93.5242136  23.8056562  84.0678605  93.2760304
  35.0622752  94.6927378  94.5158347  35.6062656  95.3057337  94.0213302
  34.4809597  95.2506957  95.0325360  21.4394186  86.0940832  78.8422966
  21.7347627  85.1851511  78.7890020  20.5382222  86.0728572  78.5203969
  33.3480265  97.8148096  85.6473375  33.2231404  97.0137836  85.1384320
  34.0059356  98.3094290  85.1587345  24.9688433  84.1696829  84.8250515
  24.2475019  84.7832797  84.6857988  25.7581689  84.7054594  84.7467161
  35.4115173  95.6157116  87.2752925  34.4645509  95.4962468  87.2031252
  35.7597946  94.7279615  87.3579186  27.7714746  81.5051255  91.0991167
  28.2949148  81.7513552  91.8617476  27.5527080  82.3371290  90.6794304
  23.1682028  83.7754930  78.9662292  22.8394734  82.8952309  78.7837397
  23.5221398  83.7202599  79.8538681  32.4161606  95.4109833  83.4757277
  32.2686569  94.4826540  83.6564847  33.2415100  95.4329923  82.9914352
  26.2823851  84.0627900  79.3337769  26.6219923  84.5913821  78.6116378
  26.7295971  84.4008306  80.1096336  36.0195728  96.2338391  84.5622150
  36.9442276  96.0281253  84.4246601  35.8511032  95.9854793  85.4711491
  28.9767292  82.4464950  88.7840837  28.6364112  81.6472764  89.1861517
  28.2706298  82.7466661  88.2117670  29.6283763  79.5314263  87.2368160
  30.4509833  79.0574741  87.1147051  29.8721827  80.3104747  87.7366847
  28.2691998  82.5602521  77.5331062  28.9900360  82.9383774  77.0294779
  27.6457302  83.2791398  77.6366040  32.4123121  83.2647670  78.4689394
  32.6286735  84.1472308  78.1678222  31.9317188  82.8733884  77.7395036
  27.1522342  86.2233384  85.0460139  27.0066923  86.5373687  85.9384420
  26.6747546  86.8418284  84.4931038  29.0118725  83.2135932  85.0941028
  28.9980294  82.3177025  84.7573326  29.7291153  83.2206595  85.7279315
  30.8644856  83.6473272  87.1394156  30.6062634  84.5690342  87.1378486
  30.3329896  83.2503706  87.8294620  35.8091044  96.7524059  79.9184241
  35.9827922  96.1870481  79.1658094  36.3019936  97.5524954  79.7363731
  21.6268004  88.7638728  87.9847800  21.0821472  89.5398536  88.1168074
  22.5047354  89.1109532  87.8266922  28.4155621  82.0950312  80.3628599
  28.5371532  81.1666958  80.5619486  28.1257663  82.1088998  79.4506914
  31.2846811  79.7805222  83.4995318  31.3068508  79.8444555  82.5447298
  31.7014870  78.9409731  83.6935825  41.6630436  89.5160482  81.5374541
  42.1061582  88.7667807  81.1393664  40.7856946  89.5070618  81.1548273
  36.7966217  96.0690823  77.0181140  37.4917122  96.6897516  77.2368454
  37.1389367  95.2186174  77.2933517  22.4134026  87.8908624  90.8777957
  21.6715762  88.0391260  91.4642587  22.0926770  88.1516890  90.0144706
  38.6957640  93.5190529  78.5468470  39.2208964  93.8577802  77.8217790
  38.6079993  92.5837544  78.3631605  30.3577689  97.4324602  90.6758347
  30.6664815  97.1873749  91.5481047  31.1553171  97.6371241  90.1877217
  30.3798301  99.5862512  82.9063724  29.9403291  99.0938891  83.5996580
  31.1306418  99.0435480  82.6655799  22.8590640  95.7774053  82.9088352
  23.6848660  95.4777825  82.5286995  22.5084692  95.0081675  83.3578140
  27.8272173  95.1300521  84.9786025  27.2052182  94.4671226  84.6788253
  28.4977040  95.1561653  84.2959673  21.0599245  93.6960379  83.8677285
  20.2231153  93.2682554  83.6861286  21.0322890  93.8892823  84.8048076
  27.8996700  83.6082309  94.5718531  27.9484856  84.4844432  94.1896301
  28.4419215  83.0659702  93.9990174  38.3851546  94.1523432  93.8519668
  37.5947090  94.1347571  93.3124168  38.1484901  94.6911726  94.6068705
  38.5049421  91.0015899  91.1652397  38.5547426  90.8365906  92.1067920
  38.3963345  90.1343158  90.7750278  27.3885680  93.6804445  78.4544486
  27.5373800  94.3639909  77.8011158  28.1952123  93.6609535  78.9693941
  35.7953184  86.9846827  92.4811704  36.6963046  86.8453292  92.1895701
  35.8701158  87.1501282  93.4209881  30.1295989  84.3613682  91.3264890
  29.2599298  84.6547248  91.0547478  30.3655469  84.9454127  92.0472153
  40.0067618  93.4212840  91.4094418  39.7152426  93.7842821  92.2457879
  39.3939749  92.7079849  91.2307750  41.2063300  90.9865720  83.9296989
  42.0410192  91.4255524  84.0934549  41.3422429  90.5104373  83.1105234
  38.2554806  88.5445455  89.8774476  38.7308928  88.7373101  89.0693328
  37.3320372  88.6004641  89.6317860  25.1438313  89.7069622  79.4605555
  24.8984355  88.8031952  79.6585765  25.3134227  89.7086773  78.5185033
  32.8335023  80.5793299  88.8430310  33.3516967  81.3154325  88.5176799
  32.4790156  80.8857292  89.6777069  24.4133960  85.4397980  76.9591716
  23.7203205  85.5142335  76.3031752  24.1685712  84.6758323  77.4813233
  33.0847617  76.9993581  84.3631207  33.3649371  76.3316770  84.9891633
  33.8698224  77.1922677  83.8505871  30.8881085  96.1752575  75.9256233
  30.3155052  96.7942762  75.4726705  31.4613879  96.7251937  76.4596155
  36.9556475  85.4211215  88.1102782  37.9073898  85.5209313  88.1315006
  36.7859926  84.6289484  88.6200866  34.9770855  82.5066798  88.2962183
  34.3820787  82.7871811  87.6008671  34.6920551  82.9960699  89.0678924
  34.1078345  96.4589725  77.0564815  35.0409018  96.3935287  77.2597691
  34.0201558  97.2945992  76.5979348  36.7366362  95.7755595  74.0168763
  36.6579993  95.4415459  74.9104521  37.5576029  96.2677363  74.0160235
  39.4344553  88.6417335  87.2245082  39.4020873  87.7033335  87.4104765
  40.0445177  88.7201371  86.4910906  31.2727884  87.5113388  73.2672286
  32.2186989  87.3819596  73.3360704  30.8942129  86.7728050  73.7441714
  39.5839042  85.4328378  87.2703365  39.0678090  84.6486835  87.0833294
  40.4678990  85.1047095  87.4349884  37.2449768  79.1769394  83.2299177
  37.0474590  78.8684482  84.1142509  37.8549474  79.9031033  83.3597107
  45.2521103  89.7033342  86.3651118  45.9824491  89.4418630  86.9258822
  44.6428048  88.9662064  86.4053186  43.3336400  87.8441204  86.9625570
  42.6069564  87.7097169  86.3542061  42.9183687  88.1518033  87.7682288
  31.1566576  91.5631134  94.7272943  32.0769586  91.7409733  94.9212989
  31.1216159  90.6187179  94.5752642  29.4570801  85.4363364  73.2027171
  28.5502256  85.1396477  73.2789884  29.7346782  85.1393182  72.3361457
  20.3748741  86.7569728  83.6526217  20.0551526  85.9035036  83.3600591
  19.8282170  86.9718306  84.4084185  24.1528649  89.4732169  87.3695724
  24.3714659  90.4049276  87.3883758  24.5654423  89.1140143  88.1550528
  31.0732867  79.9800254  79.3571412  30.2633595  79.6347339  79.7326658
  31.7617284  79.6707798  79.9459024  33.0023415  79.0578301  80.9795709
  33.5554454  79.4773754  81.6385732  33.2393501  78.1314049  81.0218665
  29.0256514  85.0465374  96.7598473  28.9253241  85.9959731  96.6910564
  28.8078056  84.7183613  95.8874543  28.2269586  82.2950299  73.3439150
  29.0888750  82.6205198  73.6034967  28.4119930  81.5081795  72.8312216
  20.2437001  90.3772639  85.6219339  19.5500473  89.9626592  85.1089293
  20.9909992  90.4193176  85.0252758  36.3802222  81.1678826  80.4874373
  35.8000891  81.8263630  80.1052425  36.1138155  80.3456170  80.0761791
  34.8305789  80.5683883  82.6895693  35.3305567  80.6800418  81.8810012
  35.4741396  80.2644936  83.3296502  28.8887784  88.4762513  95.5763534
  28.4054866  89.2762873  95.7827423  28.9748723  88.4870458  94.6230978
  22.1573744  90.3090893  83.4985354  22.1344432  90.4078580  82.5467237
  22.4674380  91.1556044  83.8202520  24.8161122  92.3667048  87.6131968
  25.7704375  92.3350990  87.5461900  24.6173645  91.9057672  88.4282194
  25.4060504  90.9368164  90.1802766  26.2253393  91.4312243  90.2037603
  25.6797312  90.0200132  90.1520333  35.1627100  83.3278916  79.5430721
  34.2752955  83.6128567  79.3250916  35.5781089  83.1672680  78.6957998
  38.5141636  83.3525437  83.2585061  39.2902026  83.8421890  83.5309677
  37.7889770  83.7783491  83.7156930  40.9514195  84.0653056  84.3159001
  41.5458686  83.8248792  83.6052309  41.0240779  83.3460187  84.9432537
  23.1711351  97.9086667  84.6302166  23.0365819  97.1487068  84.0640164
  22.7543413  98.6327567  84.1630955  34.3070314  93.0923591  73.6378741
  35.0106164  93.2973593  74.2536397  33.5832962  93.6600353  73.9027825
  35.1368124  88.8433452  79.7581011  35.0803325  89.3002004  78.9188644
  35.6896466  88.0824137  79.5803854  38.9472930  84.6323184  80.5831131
  38.6909864  84.2319820  81.4139339  38.3225798  85.3466978  80.4581270
  43.2585268  87.3719257  83.0902422  42.6984826  87.4412447  83.8633984
  42.6528771  87.1960242  82.3701919  26.3280476  98.8055984  84.8420609
  26.2112861  99.7501417  84.7399299  25.5072923  98.5029546  85.2306408
  36.2157011  93.5306120  75.6877201  37.0502615  93.0987319  75.5054676
  36.0541354  93.3588134  76.6154096  35.8702903  90.0338233  77.0533541
  35.8151707  89.8682505  76.1121985  35.2448958  90.7414266  77.2095730
  20.6595418  85.2706298  90.8794963  21.3054282  84.7605252  91.3682188
  20.4512569  86.0074979  91.4538388  33.1848810  92.3387145  96.3787103
  34.0539970  92.5127797  96.0173738  32.7055562  93.1581562  96.2562833
  29.1799029  79.5346342  76.6318859  29.1677699  80.4788182  76.7887130
  30.0722451  79.3516488  76.3378320  27.3534991  99.4584246  88.0576537
  28.2562237  99.4907856  88.3743032  27.1272361  98.5284697  88.0722873
  29.1088593  98.2115233  84.7186616  28.1584224  98.2117094  84.6050988
  29.4121079  97.4647967  84.2022650  32.9951148  76.1289119  80.8864796
  32.2283544  75.5747606  81.0321478  33.4061853  76.2010988  81.7478947
  24.9992909  82.4173915  94.9769977  25.8624371  82.0610720  95.1873302
  24.4258320  82.0787810  95.6645381  44.8441286 104.0475771  85.7832378
  45.4819696 103.9282518  85.0795718  44.7262129 104.9956615  85.8420330
  41.6530992 104.0003199  85.7193903  41.3149504 103.8844264  84.8314438
  42.5220761 103.5994364  85.6994909  37.5117808 105.8538676  81.7090794
  36.9482673 105.7628613  80.9407082  37.3970203 105.0338580  82.1893286
  42.1350775 105.1538051  91.6780108  42.1239416 104.7590849  90.8060612
  42.2971415 104.4204124  92.2713880  35.0582240 107.3489867  84.5475014
  35.8503532 107.0080692  84.1321314  35.2978890 107.4584842  85.4677168
  43.0917367 109.5209643  77.0205259  42.4405347 110.1063724  76.6339272
  43.8861730 110.0515838  77.0800296  37.0172994 106.6098781  77.4192393
  37.7903870 106.0627768  77.2805269  37.3698393 107.4743030  77.6306854
  38.8558037 107.9375163  90.6259292  38.5647903 108.8420794  90.5105959
  39.4915021 107.9791690  91.3403362  39.7814243 105.3152011  87.2160652
  40.3777816 105.0908034  86.5017615  39.8389215 104.5736757  87.8186100
  39.3539272 102.7691447  75.0510843  39.6064792 102.2472968  74.2894306
  38.4163831 102.6057592  75.1537527  44.3982555 101.7727225  82.8585586
  45.1845644 101.3546648  82.5076003  44.6621259 102.6773317  83.0267235
  44.5692632 107.2100075  77.5574243  43.9338465 107.2834702  78.2695148
  44.2390038 107.7993674  76.8793322  49.7990982 101.7102458  83.7618565
  50.5316154 101.1401675  83.9956394  49.0430337 101.3224059  84.2025070
  39.0735561 104.6719553  77.2535218  38.9571819 103.9964456  77.9216302
  39.1837820 104.1851927  76.4367371  41.4167101 104.1329700  80.9581907
  41.0525309 103.6060321  81.6694829  42.2734217 103.7428169  80.7848393
  47.3216402  95.4224032  88.2213173  46.9899727  96.2919443  87.9974388
  46.7262015  95.1060316  88.9007204  41.0572588  99.1619599  75.9543256
  41.2246991 100.0299836  76.3213727  40.8669758  99.3246881  75.0304545
  43.8147922 107.6236578  87.6209086  43.5148645 108.5261617  87.5124893
  43.4698981 107.3568762  88.4730239  37.2660403 104.0750375  83.6545790
  36.3410900 103.9426589  83.8623482  37.5144816 104.8544594  84.1515733
  47.2145065 100.1419118  85.3006523  46.3061943 100.0734527  85.0065284
  47.1632661 100.6191063  86.1288349  41.0361809 101.6177257  76.9389922
  40.9161435 102.0634308  77.7775403  40.3414398 101.9662575  76.3803461
  34.6269214 103.7183649  84.4889579  34.7561595 103.9718128  85.4028991
  33.9466665 104.3111357  84.1694235  41.2885931 101.5608764  93.2441421
  40.5119265 102.1202684  93.2344285  41.9276494 102.0465547  93.7656291
  49.0806712  98.3435557  87.0784397  48.4381092  98.6368090  86.4324192
  48.5761640  98.2288477  87.8837594  46.7346875 102.0898730  77.7670257
  47.6464732 102.3226117  77.5917954  46.2256523 102.6735774  77.2045335
  39.5432304 104.3694217  92.8059388  40.2846988 104.9079261  92.5294211
  38.8369289 104.9960506  92.9630939  45.0187643 106.5123358  91.4031549
  45.4270999 106.0705768  90.6586181  44.2964905 105.9375985  91.6565742
  41.3718713 101.4495965  88.7765106  42.2179908 101.8735378  88.9199755
  41.3117351 100.7929589  89.4703669  45.3416458 107.0724549  85.1583838
  44.7125320 107.2370263  84.4559906  44.9542120 107.4866158  85.9294802
  49.2205690 108.0078986  82.5128202  48.5356728 108.3877888  81.9625235
  49.3049539 108.6174313  83.2460149  44.5218159  99.1100333  90.4346280
  44.2779090  99.8642394  89.8980555  44.7978089  99.4885681  91.2693527
  46.4756621 105.6538945  89.1123545  46.6873517 106.2970705  88.4357926
  46.4286370 104.8201262  88.6445475  44.0782850  98.2656766  86.0160117
  43.2167329  98.5638020  86.3076855  44.1045285  98.4827165  85.0841150
  40.8944420 106.8098957  82.4233923  41.3582765 107.0886660  81.6338546
  40.6301218 105.9082401  82.2407014  37.7868501 106.3570438  85.3613686
  38.3569858 106.7857707  84.7231171  38.3776613 106.0753023  86.0597872
  39.8313306 102.9322109  79.2323488  40.5337349 103.3843153  79.6997415
  39.4993934 102.2905928  79.8603381  38.2793667 101.5233866  93.6074698
  37.6492328 102.2050146  93.8410094  38.1729755 101.4116947  92.6627836
  33.5738640 101.1905662  84.5340622  32.7837694 101.4463190  84.0580732
  34.0649887 102.0053999  84.6392662  47.5902449 108.5310901  87.2845903
  48.4119893 108.1291088  87.0028584  47.5864852 108.4279135  88.2362018
  35.5253385 101.5550241  81.4924098  34.7284548 101.6668935  82.0107594
  35.2978977 101.8936893  80.6264989  41.3559053 108.0794944  89.4406613
  41.4203485 108.5415351  90.2764785  40.6469977 107.4492309  89.5688923
  31.8576343 101.4436152  86.9655613  32.1084381 102.3283162  87.2313189
  32.3935891 101.2640754  86.1930704  55.6808442 104.8749649  83.6330874
  54.9272151 104.3057047  83.4774878  55.8155984 104.8412314  84.5801509
  41.0707070 109.7463052  79.3085593  40.9352745 110.5914587  79.7370441
  41.6116883 109.9482329  78.5451527  37.5574410  95.8254631  95.9699949
  37.1641356  95.2720830  96.6447593  38.3740550  96.1365210  96.3606466
  34.5236468 107.2638490  79.8813519  35.0360988 108.0581740  80.0319083
  35.1759181 106.5664780  79.8147120  36.3331352 110.3804246  81.9636272
  36.5097981 111.3022211  81.7757256  37.1288186 110.0662665  82.3930651
  40.4742371  97.2412511  93.5620205  41.2152084  97.8419664  93.4824668
  40.7060294  96.4990148  93.0038248  35.6183709 102.4268878  91.8398435
  35.5037224 101.5254135  92.1405534  34.7628227 102.6732575  91.4883251
  42.6975547 110.3686618  93.4385935  42.2539401 109.5822997  93.1206840
  43.3592760 110.5565769  92.7729826  44.7956785 110.6489418  91.4667337
  44.7775260 111.4698299  90.9747606  45.7176705 110.5243493  91.6917478
  41.2529839 108.1633548  92.3090845  41.7858176 107.4021836  92.0790153
  40.7243920 107.8707199  93.0515000  44.4199534  93.2693613  87.8384487
  44.0763803  94.1595255  87.7623597  44.7878497  93.0795271  86.9754072
  32.4885385 105.5927144  80.6573089  33.3260607 106.0024152  80.4406797
  32.6663652 104.6526586  80.6273283  44.3849817 103.2602225  76.3456922
  43.8696440 104.0306829  76.5845309  44.1127125 102.5867361  76.9689983
  41.9696928  98.1051925  81.4042160  41.1138524  97.7158776  81.2247799
  42.3823879  98.1843886  80.5441946  43.4996074  95.6398269  85.8033720
  42.9960870  95.6028404  84.9901525  43.7926681  96.5491011  85.8630377
  39.7438960  95.7236998  84.8099902  40.6091957  95.5279807  84.4505791
  39.8116469  95.4947350  85.7369259  49.3584091 106.0134579  78.2810095
  48.5813534 105.6745739  77.8365258  50.0375572 106.0187202  77.6065061
  44.1736120 101.1329317  78.1716703  43.8686255 101.4475466  79.0226846
  45.1266562 101.2110737  78.2144036  42.6182552 107.2919540  79.8209657
  42.0903913 106.5572300  79.5082895  42.1170054 108.0694216  79.5749625
  47.5975398 105.4868560  84.9376703  46.9399072 106.1767822  85.0256832
  48.4015797 105.8764992  85.2810690  37.3501279  97.9539206  82.1816269
  37.9245031  97.7314388  81.4489462  37.9372262  98.0227901  82.9344870
  46.4080856 103.8412933  82.9880645  46.9212738 104.4742925  83.4902355
  47.0582080 103.2414129  82.6224005  37.6770866  99.9843667  76.2012154
  36.8408179 100.3218354  76.5221429  37.5375636  99.8492647  75.2639291
  39.6523947  94.8280455  80.9091338  38.9988359  94.5129472  80.2847953
  39.6104421  94.2056196  81.6351161  40.7635152 105.1099750  72.8244630
  39.8562214 104.8789004  73.0235779  41.2606184 104.3137370  73.0118612
  42.8861687 101.3162389  85.2338986  41.9684249 101.5377336  85.0760674
  43.3021831 101.3908699  84.3750693  43.6696735 102.7153804  80.3641666
  44.4168554 103.2275202  80.0548788  43.9388325 102.3937857  81.2246060
  41.9423385 105.2112345  77.3468620  41.0334605 104.9271378  77.4441090
  41.9718469 105.6311424  76.4871927  47.1742653 108.8218935  81.1159788
  46.7204980 107.9809845  81.1724978  46.5436619 109.4580333  81.4534568
  46.1175572  99.7510921  82.3460455  45.3798329  99.2388307  82.6770698
  46.3702346  99.3111302  81.5343732  45.6175592 110.6595431  82.0509606
  45.9098566 111.2200488  81.3321972  46.1274212 110.9523992  82.8062765
  46.2187200  92.5287173  82.9402225  46.5246076  91.6684536  82.6528140
  46.9439804  93.1204793  82.7401218  32.5111556 102.9317859  81.3283822
  32.3135955 102.3387220  80.6034889  31.9558220 102.6270069  82.0459761
  40.4908279 102.8240966  83.4478416  40.5456889 101.8714802  83.3720892
  39.6799481 102.9800405  83.9319714  41.6399473 106.7521089  74.6856699
  41.2018903 106.0356948  74.2262336  42.3809914 106.9797204  74.1241790
  38.4300639 101.4418025  81.2068794  37.6168505 101.7412196  81.6133987
  38.9259633 101.0473714  81.9243277  40.5809217 111.4375782  83.1403059
  40.5385396 111.6636629  82.2111591  41.4971916 111.2039157  83.2888860
  44.0274851 101.9059850  90.0383688  44.3824239 102.1331323  90.8978154
  44.6746982 102.2378227  89.4160944  49.7572588 105.0278286  80.7433017
  49.6190486 105.2179882  79.8154207  49.4008807 105.7897669  81.2001069
  37.9214714  99.0136381  86.8230029  38.5614093  98.8725140  86.1252993
  37.0892245  98.7270894  86.4468631  49.7841967 107.0954813  85.7544289
  50.2178474 107.0030102  86.6027343  50.4973548 107.0712313  85.1164305
  38.6975018 108.3138811  82.9365022  39.4915616 107.8189132  82.7347597
  37.9866710 107.7856675  82.5732727  43.5169862 110.6956907  87.2877390
  43.5706885 111.2647843  88.0555105  42.6484644 110.8658792  86.9231427
  35.0057781 102.4581893  79.0124775  34.0755369 102.3966349  79.2294737
  35.1015253 101.9357846  78.2161416  34.9243330  98.9836706  81.6003016
  35.1850148  99.8982039  81.4912177  35.7460503  98.5161149  81.7499629
  36.3968256 100.3974463  88.7701841  37.0691309 100.1891825  88.1214490
  35.5698042 100.1996549  88.3307073  50.6457517 107.1378513  88.2877174
  50.8393407 108.0424324  88.5336449  50.5458135 106.6785933  89.1215759
  42.2993828  97.0236404  90.7867502  41.6521743  97.7226354  90.6931978
  43.0694843  97.4572548  91.1543750  45.7072626 107.2885256  93.8618055
  45.5558132 107.0595808  92.9448139  45.6977305 108.2455858  93.8749400
  42.4757962 104.8617169  88.8464321  43.4050022 105.0128329  88.6733289
  42.0548992 104.9501190  87.9912968  41.2746294 108.8867833  86.6162859
  41.1357380 108.5186618  87.4888797  40.4860890 109.4015473  86.4446817
  42.8251509 108.2649436  84.0051697  42.4901342 108.2250206  84.9009347
  42.3255455 107.5994152  83.5322107  36.7995753 103.6717066  89.5304278
  36.6615551 102.9397305  90.1315817  37.7100676 103.5825966  89.2488466
  45.7610701 105.6105470  74.2788756  45.1439871 104.8852299  74.1821809
  45.2927189 106.3714831  73.9355831  39.4278054 103.3837025  89.0187958
  40.1377672 102.7430218  88.9774576  39.3847362 103.6349920  89.9414138
  47.4164832 110.3204379  91.9394537  47.3577379 109.6363599  91.2725120
  47.8184351 111.0623369  91.4875163  38.1406988 100.3702243  90.8383597
  37.6044345  99.9192982  91.4905193  37.5523696 100.5048152  90.0954061
  37.5509247  99.8290895  73.4010061  36.6738713  99.7079696  73.0372307
  38.0267000  99.0376973  73.1488949  47.4182240 108.2843963  90.1708516
  46.5309018 107.9469885  90.2934915  47.9880791 107.5526994  90.4077282
  29.0711387 104.6168054  83.4951568  29.7582427 104.3029785  82.9072583
  28.9159515 105.5209419  83.2218819  33.8746109  99.5058251  87.9236592
  33.7904298  98.8983921  87.1887001  33.0528815  99.9967269  87.9246088
  40.7373173 112.1817185  80.6472581  39.9540695 112.7238865  80.7410806
  41.4365918 112.6991165  81.0466822  44.0469823  97.9911815  83.2906787
  44.5438522  97.2381777  82.9707857  43.2756804  98.0276131  82.7249996
  51.8999580 103.6952180  84.9325078  51.8889456 104.5776896  84.5619011
  51.0316960 103.3423731  84.7379615  43.4082077 112.8432249  89.2927918
  44.1210049 113.4779714  89.2203820  42.9172105 112.9396115  88.4767920
  45.1299603 106.7483502  80.8645210  44.1955882 106.8684964  80.6949914
  45.3076272 105.8455969  80.6005220  40.6304791 100.1329198  83.0178471
  40.2602579  99.5800238  83.7059377  41.1263884  99.5287331  82.4653471
  48.5172155 102.5900821  81.3995244  48.9832607 103.4228813  81.3255547
  48.9679655 102.1245803  82.1040503  38.4593990 110.5926693  90.1133489
  39.1603450 111.2263176  90.2662883  37.9889105 110.9341424  89.3529128
  46.5848386 108.9344642  78.3981396  46.8608230 108.8201237  79.3075270
  45.7152885 108.5362127  78.3593569  46.4888818  94.9581408  85.4386145
  45.5751897  95.1885635  85.6068352  46.9181919  95.0419852  86.2900178
  46.2595276 103.1471300  87.9386040  45.6066726 103.3947207  87.2838492
  46.6375656 102.3335438  87.6048517  43.2202450 113.1830993  82.0414210
  43.4024844 112.3652649  82.5041962  44.0435436 113.3998685  81.6039100
  43.5544615 112.1099178  79.3029258  44.0832382 111.5991633  78.6899420
  43.8172835 111.7941709  80.1674791  42.3082849 103.8891111  94.4252077
  41.6323486 103.7885240  95.0954452  43.1310483 103.7330325  94.8888074
  34.0561708 110.1263048  87.0464592  34.6415145 109.3806736  87.1792496
  33.8586547 110.4367004  87.9301256  28.6479363 102.6968648  85.7669035
  28.6863462 102.1632239  86.5606153  28.1419656 102.1703853  85.1480012
  36.0270125  97.5433188  89.2631577  36.0911452  98.4048019  88.8508975
  35.9637245  96.9307190  88.5303936  35.5022398  99.6156321  92.9104612
  36.1294437  99.2333398  93.5242136  34.6450317  99.3970523  93.2760304
  45.9016506 110.0219296  94.5158347  46.4456410 110.6349254  94.0213302
  45.3203351 110.5798874  95.0325360  32.2787940 101.4232750  78.8422966
  32.5741382 100.5143428  78.7890020  31.3775976 101.4020489  78.5203969
  44.1874019 113.1440014  85.6473375  44.0625159 112.3429754  85.1384320
  44.8453110 113.6386207  85.1587345  35.8082187  99.4988747  84.8250515
  35.0868773 100.1124714  84.6857988  36.5975443 100.0346511  84.7467161
  46.2508928 110.9449034  87.2752925  45.3039263 110.8254385  87.2031252
  46.5991701 110.0571532  87.3579186  38.6108501  96.8343173  91.0991167
  39.1342903  97.0805470  91.8617476  38.3920834  97.6663208  90.6794304
  34.0075782  99.1046848  78.9662292  33.6788488  98.2244227  78.7837397
  34.3615153  99.0494516  79.8538681  43.2555361 110.7401750  83.4757277
  43.1080323 109.8118458  83.6564847  44.0808854 110.7621841  82.9914352
  37.1217605  99.3919817  79.3337769  37.4613678  99.9205739  78.6116378
  37.5689726  99.7300224  80.1096336  46.8589483 111.5630309  84.5622150
  47.7836030 111.3573170  84.4246601  46.6904786 111.3146710  85.4711491
  39.8161046  97.7756868  88.7840837  39.4757866  96.9764681  89.1861517
  39.1100052  98.0758579  88.2117670  40.4677518  94.8606181  87.2368160
  41.2903587  94.3866659  87.1147051  40.7115581  95.6396664  87.7366847
  39.1085752  97.8894439  77.5331062  39.8294115  98.2675692  77.0294779
  38.4851056  98.6083316  77.6366040  43.2516875  98.5939588  78.4689394
  43.4680490  99.4764226  78.1678222  42.7710942  98.2025801  77.7395036
  37.9916097 101.5525301  85.0460139  37.8460677 101.8665604  85.9384420
  37.5141300 102.1710202  84.4931038  39.8512479  98.5427849  85.0941028
  39.8374048  97.6468943  84.7573326  40.5684908  98.5498513  85.7279315
  41.7038610  98.9765189  87.1394156  41.4456388  99.8982260  87.1378486
  41.1723651  98.5795624  87.8294620  46.6484799 112.0815977  79.9184241
  46.8221676 111.5162399  79.1658094  47.1413690 112.8816871  79.7363731
  32.4661759 104.0930646  87.9847800  31.9215227 104.8690454  88.1168074
  33.3441109 104.4401450  87.8266922  39.2549375  97.4242229  80.3628599
  39.3765287  96.4958876  80.5619486  38.9651418  97.4380915  79.4506914
  42.1240566  95.1097140  83.4995318  42.1462263  95.1736473  82.5447298
  42.5408625  94.2701649  83.6935825  52.5024190 104.8452399  81.5374541
  52.9455336 104.0959725  81.1393664  51.6250700 104.8362536  81.1548273
  47.6359971 111.3982741  77.0181140  48.3310876 112.0189434  77.2368454
  47.9783122 110.5478092  77.2933517  33.2527781 103.2200542  90.8777957
  32.5109517 103.3683177  91.4642587  32.9320525 103.4808808  90.0144706
  49.5351395 108.8482446  78.5468470  50.0602719 109.1869719  77.8217790
  49.4473747 107.9129462  78.3631605  41.1971443 112.7616520  90.6758347
  41.5058570 112.5165667  91.5481047  41.9946925 112.9663159  90.1877217
  38.6665927 110.4592439  84.9786025  38.0445937 109.7963144  84.6788253
  39.3370794 110.4853571  84.2959673  31.8992999 109.0252297  83.8677285
  31.0624908 108.5974471  83.6861286  31.8716645 109.2184740  84.8048076
  38.7390455  98.9374227  94.5718531  38.7878610  99.8136350  94.1896301
  39.2812969  98.3951620  93.9990174  49.2245301 109.4815350  93.8519668
  48.4340844 109.4639489  93.3124168  48.9878655 110.0203644  94.6068705
  49.3443176 106.3307816  91.1652397  49.3941181 106.1657824  92.1067920
  49.2357099 105.4635076  90.7750278  38.2279434 109.0096362  78.4544486
  38.3767555 109.6931827  77.8011158  39.0345878 108.9901452  78.9693941
  46.6346938 102.3138745  92.4811704  47.5356801 102.1745209  92.1895701
  46.7094913 102.4793199  93.4209881  40.9689743  99.6905599  91.3264890
  40.0993053  99.9839165  91.0547478  41.2049224 100.2746044  92.0472153
  50.8461373 108.7504758  91.4094418  50.5546181 109.1134739  92.2457879
  50.2333504 108.0371766  91.2307750  52.0457055 106.3157638  83.9296989
  52.8803946 106.7547442  84.0934549  52.1816184 105.8396291  83.1105234
  49.0948561 103.8737373  89.8774476  49.5702682 104.0665019  89.0693328
  48.1714126 103.9296558  89.6317860  35.9832067 105.0361540  79.4605555
  35.7378109 104.1323870  79.6585765  36.1527982 105.0378690  78.5185033
  43.6728777  95.9085216  88.8430310  44.1910721  96.6446243  88.5176799
  43.3183910  96.2149209  89.6777069  35.2527715 100.7689897  76.9591716
  34.5596960 100.8434252  76.3031752  35.0079467 100.0050241  77.4813233
  43.9241371  92.3285499  84.3631207  44.2043125  91.6608688  84.9891633
  44.7091978  92.5214594  83.8505871  41.7274840 111.5044493  75.9256233
  41.1548807 112.1234680  75.4726705  42.3007634 112.0543854  76.4596155
  47.7950230 100.7503133  88.1102782  48.7467653 100.8501230  88.1315006
  47.6253680  99.9581401  88.6200866  45.8164609  97.8358716  88.2962183
  45.2214541  98.1163729  87.6008671  45.5314306  98.3252617  89.0678924
  44.9472100 111.7881643  77.0564815  45.8802773 111.7227204  77.2597691
  44.8595313 112.6237910  76.5979348  47.5760116 111.1047513  74.0168763
  47.4973748 110.7707377  74.9104521  48.3969783 111.5969281  74.0160235
  50.2738308 103.9709252  87.2245082  50.2414628 103.0325253  87.4104765
  50.8838931 104.0493289  86.4910906  42.1121638 102.8405305  73.2672286
  43.0580743 102.7111513  73.3360704  41.7335883 102.1019967  73.7441714
  50.4232796 100.7620296  87.2703365  49.9071845  99.9778752  87.0833294
  51.3072745 100.4339012  87.4349884  48.0843523  94.5061311  83.2299177
  47.8868344  94.1976400  84.1142509  48.6943229  95.2322950  83.3597107
  56.0914857 105.0325259  86.3651118  56.8218246 104.7710547  86.9258822
  55.4821803 104.2953981  86.4053186  54.1730155 103.1733122  86.9625570
  53.4463318 103.0389087  86.3542061  53.7577441 103.4809950  87.7682288
  41.9960331 106.8923052  94.7272943  42.9163340 107.0701651  94.9212989
  41.9609914 105.9479097  94.5752642  40.2964556 100.7655282  73.2027171
  39.3896011 100.4688394  73.2789884  40.5740537 100.4685100  72.3361457
  31.2142496 102.0861645  83.6526217  30.8945280 101.2326953  83.3600591
  30.6675924 102.3010223  84.4084185  34.9922403 104.8024086  87.3695724
  35.2108413 105.7341194  87.3883758  35.4048177 104.4432061  88.1550528
  41.9126621  95.3092171  79.3571412  41.1027350  94.9639256  79.7326658
  42.6011038  94.9999715  79.9459024  43.8417170  94.3870218  80.9795709
  44.3948208  94.8065672  81.6385732  44.0787256  93.4605966  81.0218665
  39.8650269 100.3757292  96.7598473  39.7646996 101.3251649  96.6910564
  39.6471811 100.0475531  95.8874543  39.0663340  97.6242217  73.3439150
  39.9282504  97.9497115  73.6034967  39.2513684  96.8373713  72.8312216
  31.0830756 105.7064557  85.6219339  30.3894227 105.2918509  85.1089293
  31.8303747 105.7485093  85.0252758  47.2195977  96.4970743  80.4874373
  46.6394646  97.1555547  80.1052425  46.9531909  95.6748088  80.0761791
  45.6699543  95.8975801  82.6895693  46.1699321  96.0092336  81.8810012
  46.3135151  95.5936854  83.3296502  39.7281539 103.8054431  95.5763534
  39.2448621 104.6054791  95.7827423  39.8142478 103.8162376  94.6230978
  32.9967498 105.6382810  83.4985354  32.9738187 105.7370498  82.5467237
  33.3068135 106.4847961  83.8202520  35.6554876 107.6958965  87.6131968
  36.6098130 107.6642908  87.5461900  35.4567400 107.2349589  88.4282194
  36.2454258 106.2660082  90.1802766  37.0647147 106.7604160  90.2037603
  36.5191066 105.3492050  90.1520333  46.0020855  98.6570834  79.5430721
  45.1146710  98.9420484  79.3250916  46.4174844  98.4964597  78.6957998
  49.3535391  98.6817355  83.2585061  50.1295781  99.1713807  83.5309677
  48.6283525  99.1075409  83.7156930  51.7907949  99.3944974  84.3159001
  52.3852440  99.1540710  83.6052309  51.8634533  98.6752105  84.9432537
  45.1464068 108.4215508  73.6378741  45.8499918 108.6265511  74.2536397
  44.4226717 108.9892270  73.9027825  45.9761878 104.1725370  79.7581011
  45.9197080 104.6293921  78.9188644  46.5290221 103.4116054  79.5803854
  49.7866684  99.9615102  80.5831131  49.5303619  99.5611737  81.4139339
  49.1619552 100.6758896  80.4581270  54.0979022 102.7011175  83.0902422
  53.5378580 102.7704364  83.8633984  53.4922526 102.5252160  82.3701919
  47.0550766 108.8598038  75.6877201  47.8896369 108.4279236  75.5054676
  46.8935108 108.6880051  76.6154096  46.7096658 105.3630151  77.0533541
  46.6545462 105.1974422  76.1121985  46.0842713 106.0706184  77.2095730
  31.4989173 100.5998215  90.8794963  32.1448036 100.0897169  91.3682188
  31.2906324 101.3366897  91.4538388  44.0242565 107.6679063  96.3787103
  44.8933725 107.8419715  96.0173738  43.5449316 108.4873480  96.2562833
  40.0192783  94.8638260  76.6318859  40.0071453  95.8080100  76.7887130
  40.9116205  94.6808405  76.3378320  43.8344903  91.4581037  80.8864796
  43.0677298  90.9039523  81.0321478  44.2455608  91.5302905  81.7478947
  35.8386664  97.7465832  94.9769977  36.7018125  97.3902637  95.1873302
  35.2652074  97.4079727  95.6645381  55.2376309 117.1019143  82.8585586
  56.0239398 116.6838566  82.5076003  55.5015013 118.0065235  83.0267235
  60.6384736 117.0394376  83.7618565  61.3709908 116.4693593  83.9956394
  59.8824092 116.6515976  84.2025070  58.1610157 110.7515950  88.2213173
  57.8293481 111.6211361  87.9974388  57.5655770 110.4352234  88.9007204
  51.8966343 114.4911517  75.9543256  52.0640745 115.3591753  76.3213727
  51.7063512 114.6538799  75.0304545  58.0538820 115.4711036  85.3006523
  57.1455697 115.4026445  85.0065284  58.0026416 115.9482981  86.1288349
  59.9200466 113.6727475  87.0784397  59.2774847 113.9660008  86.4324192
  59.4155395 113.5580395  87.8837594  57.5740630 117.4190648  77.7670257
  58.4858486 117.6518034  77.5917954  57.0650277 118.0027692  77.2045335
  52.2112468 116.7787882  88.7765106  53.0573663 117.2027296  88.9199755
  52.1511105 116.1221507  89.4703669  55.3611913 114.4392251  90.4346280
  55.1172845 115.1934311  89.8980555  55.6371844 114.8177598  91.2693527
  54.9176605 113.5948684  86.0160117  54.0561084 113.8929937  86.3076855
  54.9439039 113.8119083  85.0841150  66.5202197 120.2041567  83.6330874
  65.7665905 119.6348965  83.4774878  66.6549738 120.1704231  84.5801509
  48.3968164 111.1546549  95.9699949  48.0035110 110.6012748  96.6447593
  49.2134305 111.4657128  96.3606466  51.3136125 112.5704428  93.5620205
  52.0545839 113.1711581  93.4824668  51.5454048 111.8282066  93.0038248
  55.2593288 108.5985531  87.8384487  54.9157558 109.4887173  87.7623597
  55.6272251 108.4087189  86.9754072  52.8090682 113.4343843  81.4042160
  51.9532278 113.0450693  81.2247799  53.2217634 113.5135804  80.5441946
  54.3389829 110.9690186  85.8033720  53.8354624 110.9320321  84.9901525
  54.6320436 111.8782929  85.8630377  50.5832715 111.0528916  84.8099902
  51.4485711 110.8571725  84.4505791  50.6510224 110.8239268  85.7369259
  55.0129874 116.4621234  78.1716703  54.7080010 116.7767384  79.0226846
  55.9660316 116.5402654  78.2144036  48.1895034 113.2831124  82.1816269
  48.7638786 113.0606305  81.4489462  48.7766016 113.3519818  82.9344870
  48.5164621 115.3135585  76.2012154  47.6801933 115.6510272  76.5221429
  48.3769391 115.1784565  75.2639291  50.4917701 110.1572373  80.9091338
  49.8382114 109.8421390  80.2847953  50.4498176 109.5348113  81.6351161
  53.7255442 116.6454306  85.2338986  52.8078003 116.8669253  85.0760674
  54.1415585 116.7200617  84.3750693  56.9569327 115.0802838  82.3460455
  56.2192084 114.5680225  82.6770698  57.2096100 114.6403220  81.5343732
  57.0580954 107.8579090  82.9402225  57.3639831 106.9976454  82.6528140
  57.7833559 108.4496711  82.7401218  54.8668605 117.2351768  90.0383688
  55.2217993 117.4623241  90.8978154  55.5140737 117.5670144  89.4160944
  48.7608468 114.3428299  86.8230029  49.4007848 114.2017058  86.1252993
  47.9285999 114.0562812  86.4468631  53.1387582 112.3528322  90.7867502
  52.4915497 113.0518271  90.6931978  53.9088598 112.7864466  91.1543750
  48.9800742 115.6994161  90.8383597  48.4438099 115.2484899  91.4905193
  48.3917451 115.8340070  90.0954061  48.3903001 115.1582812  73.4010061
  47.5132467 115.0371613  73.0372307  48.8660754 114.3668891  73.1488949
  54.8863577 113.3203732  83.2906787  55.3832277 112.5673695  82.9707857
  54.1150559 113.3568049  82.7249996  62.7393335 119.0244098  84.9325078
  62.7283211 119.9068813  84.5619011  61.8710714 118.6715649  84.7379615
  51.4698546 115.4621115  83.0178471  51.0996334 114.9092156  83.7059377
  51.9657638 114.8579249  82.4653471  59.3565909 117.9192739  81.3995244
  59.8226361 118.7520730  81.3255547  59.8073410 117.4537720  82.1040503
  57.3282572 110.2873326  85.4386145  56.4145652 110.5177553  85.6068352
  57.7575673 110.3711770  86.2900178  57.0989031 118.4763218  87.9386040
  56.4460481 118.7239125  87.2838492  57.4769410 117.6627356  87.6048517
  46.8663880 112.8725106  89.2631577  46.9305206 113.7339937  88.8508975
  46.8031000 112.2599108  88.5303936  46.3416152 114.9448239  92.9104612
  46.9688191 114.5625316  93.5242136  45.4844071 114.7262440  93.2760304
  49.4502255 112.1635091  91.0991167  49.9736657 112.4097387  91.8617476
  49.2314589 112.9955126  90.6794304  44.8469537 114.4338765  78.9662292
  44.5182243 113.5536144  78.7837397  45.2008907 114.3786434  79.8538681
  47.9611360 114.7211735  79.3337769  48.3007432 115.2497656  78.6116378
  48.4083480 115.0592141  80.1096336  50.6554801 113.1048786  88.7840837
  50.3151621 112.3056599  89.1861517  49.9493807 113.4050497  88.2117670
  51.3071272 110.1898098  87.2368160  52.1297342 109.7158576  87.1147051
  51.5509336 110.9688582  87.7366847  49.9479507 113.2186357  77.5331062
  50.6687869 113.5967609  77.0294779  49.3244811 113.9375234  77.6366040
  54.0910630 113.9231506  78.4689394  54.3074244 114.8056144  78.1678222
  53.6104697 113.5317719  77.7395036  50.6906234 113.8719767  85.0941028
  50.6767803 112.9760860  84.7573326  51.4078662 113.8790431  85.7279315
  52.5432365 114.3057107  87.1394156  52.2850143 115.2274178  87.1378486
  52.0117405 113.9087542  87.8294620  50.0943130 112.7534147  80.3628599
  50.2159041 111.8250793  80.5619486  49.8045172 112.7672833  79.4506914
  52.9634320 110.4389058  83.4995318  52.9856017 110.5028391  82.5447298
  53.3802379 109.5993566  83.6935825  63.3417945 120.1744317  81.5374541
  63.7849091 119.4251642  81.1393664  62.4644455 120.1654454  81.1548273
  49.5784209 114.2666145  94.5718531  49.6272365 115.1428267  94.1896301
  50.1206724 113.7243538  93.9990174  57.4740693 117.6430662  92.4811704
  58.3750555 117.5037127  92.1895701  57.5488667 117.8085117  93.4209881
  51.8083498 115.0197517  91.3264890  50.9386807 115.3131083  91.0547478
  52.0442978 115.6037962  92.0472153  59.9342315 119.2029290  89.8774476
  60.4096437 119.3956937  89.0693328  59.0107881 119.2588476  89.6317860
  54.5122532 111.2377134  88.8430310  55.0304476 111.9738161  88.5176799
  54.1577664 111.5441127  89.6777069  54.7635126 107.6577416  84.3631207
  55.0436880 106.9900605  84.9891633  55.5485733 107.8506512  83.8505871
  58.6343984 116.0795050  88.1102782  59.5861407 116.1793148  88.1315006
  58.4647435 115.2873319  88.6200866  56.6558364 113.1650634  88.2962183
  56.0608296 113.4455646  87.6008671  56.3708060 113.6544535  89.0678924
  61.1132062 119.3001170  87.2245082  61.0808382 118.3617171  87.4104765
  61.7232686 119.3785207  86.4910906  61.2626551 116.0912214  87.2703365
  60.7465599 115.3070670  87.0833294  62.1466499 115.7630930  87.4349884
  58.9237277 109.8353229  83.2299177  58.7262099 109.5268317  84.1142509
  59.5336983 110.5614868  83.3597107  66.9308612 120.3617177  86.3651118
  67.6612000 120.1002465  86.9258822  66.3215557 119.6245899  86.4053186
  65.0123909 118.5025040  86.9625570  64.2857073 118.3681004  86.3542061
  64.5971196 118.8101868  87.7682288  51.1358310 116.0947199  73.2027171
  50.2289765 115.7980312  73.2789884  51.4134291 115.7977018  72.3361457
  52.7520376 110.6384089  79.3571412  51.9421104 110.2931174  79.7326658
  53.4404793 110.3291633  79.9459024  54.6810924 109.7162136  80.9795709
  55.2341963 110.1357589  81.6385732  54.9181010 108.7897884  81.0218665
  50.7044023 115.7049210  96.7598473  50.6040750 116.6543567  96.6910564
  50.4865565 115.3767449  95.8874543  49.9057095 112.9534135  73.3439150
  50.7676259 113.2789033  73.6034967  50.0907439 112.1665631  72.8312216
  58.0589731 111.8262661  80.4874373  57.4788400 112.4847465  80.1052425
  57.7925664 111.0040006  80.0761791  56.5093298 111.2267719  82.6895693
  57.0093076 111.3384253  81.8810012  57.1528905 110.9228772  83.3296502
  56.8414609 113.9862752  79.5430721  55.9540464 114.2712402  79.3250916
  57.2568598 113.8256515  78.6957998  60.1929145 114.0109272  83.2585061
  60.9689535 114.5005725  83.5309677  59.4677279 114.4367327  83.7156930
  62.6301704 114.7236892  84.3159001  63.2246195 114.4832628  83.6052309
  62.7028288 114.0044022  84.9432537  60.6260439 115.2907019  80.5831131
  60.3697373 114.8903655  81.4139339  60.0013307 116.0050813  80.4581270
  64.9372777 118.0303093  83.0902422  64.3772335 118.0996282  83.8633984
  64.3316280 117.8544077  82.3701919  50.8586538 110.1930178  76.6318859
  50.8465207 111.1372018  76.7887130  51.7509960 110.0100323  76.3378320
  54.6738657 106.7872954  80.8864796  53.9071053 106.2331441  81.0321478
  55.0849362 106.8594823  81.7478947  46.6780418 113.0757750  94.9769977
  47.5411880 112.7194555  95.1873302  46.1045829 112.7371645  95.6645381
   1.4866269  19.7370223  72.5077685   2.1244679  19.6176970  71.8041025
   1.3687112  20.6851067  72.5665637   1.0407538  17.4621677  69.5830893
   1.8270627  17.0441100  69.2321310   1.3046242  18.3667769  69.7512541
   1.2117615  22.8994527  64.2819550   0.5763448  22.9729154  64.9940454
   0.8815022  23.4888126  63.6038629   6.4415965  17.3996910  70.4863871
   7.1741137  16.8296127  70.7201701   5.6855321  17.0118511  70.9270377
   3.8570049  15.8313570  72.0251830   2.9486926  15.7628979  71.7310591
   3.8057645  16.3085515  72.8533655   5.7231695  14.0330009  73.8029704
   5.0806075  14.3262542  73.1569498   5.2186624  13.9182929  74.6082901
   3.3771859  17.7793182  64.4915563   4.2889715  18.0120569  64.3163261
   2.8681506  18.3630226  63.9290642   1.6612626  22.2017810  78.1276856
   2.0695982  21.7600220  77.3831488   0.9389888  21.6270437  78.3811049
   1.9841441  22.7619000  71.8829145   1.3550304  22.9264715  71.1805212
   1.5967103  23.1760610  72.6540109   5.8630673  23.6973438  69.2373508
   5.1781711  24.0772340  68.6870542   5.9474522  24.3068765  69.9705456
   3.1181605  21.3433397  75.8368852   3.3298500  21.9865157  75.1603233
   3.0711353  20.5095714  75.3690782   4.2327433  24.2205353  74.0091209
   5.0544876  23.8185540  73.7273891   4.2289835  24.1173587  74.9607325
  12.3233426  20.5644101  70.3576181  11.5697134  19.9951499  70.2020185
  12.4580967  20.5306766  71.3046815   1.4381768  26.3383870  78.1912643
   1.4200243  27.1592751  77.6992913   2.3601688  26.2137945  78.4162785
   1.0274800  18.9496676  63.0702229   0.5121423  19.7201281  63.3090616
   0.7552108  18.2761813  63.6935290   6.0009074  21.7029031  65.0055402
   5.2238517  21.3640191  64.5610564   6.6800555  21.7081654  64.3310367
   4.2400381  21.1763012  71.6622010   3.5824055  21.8662274  71.7502139
   5.0440780  21.5659444  72.0055996   3.0505840  19.5307385  69.7125952
   3.5637722  20.1637377  70.2147662   3.7007064  18.9308581  69.3469312
   3.8167636  24.5113387  67.8405094   3.3629963  23.6704296  67.8970285
   3.1861603  25.1474785  68.1779875   2.2600575  26.3489883  68.7754913
   2.5523550  26.9094940  68.0567278   2.7699196  26.6418444  69.5308072
   0.6699834  17.5954302  76.7628995   1.0249222  17.8225775  77.6223461
   1.3171965  17.9272679  76.1406250   6.3997571  20.7172738  67.4678324
   6.2615470  20.9074334  66.5399513   6.0433790  21.4792121  67.9246375
   6.4266951  22.7849265  72.4789596   6.8603457  22.6924554  73.3272650
   7.1398531  22.7606765  71.8409612   7.2882500  22.8272965  75.0122481
   7.4818390  23.7318776  75.2581756   7.1883118  22.3680384  75.8461066
   2.3497609  22.9779708  80.5863362   2.1983115  22.7490260  79.6693445
   2.3402288  23.9350310  80.5994707   2.4035684  21.2999922  61.0034063
   1.7864855  20.5746750  60.9067116   1.9352172  22.0609283  60.6601137
   4.0589816  26.0098831  78.6639843   4.0002362  25.3258051  77.9970426
   4.4609334  26.7517821  78.2120469   4.0607223  23.9738415  76.8953823
   3.1734002  23.6364336  77.0180222   4.6305774  23.2421446  77.1322589
   8.5424563  19.3846632  71.6570385   8.5314440  20.2671347  71.2864318
   7.6741943  19.0318183  71.4624922   1.7724587  22.4377954  67.5890517
   0.8380865  22.5579416  67.4195221   1.9501255  21.5350420  67.3250526
   5.1597138  18.2795273  68.1240551   5.6257590  19.1123265  68.0500853
   5.6104639  17.8140255  68.8285809   3.2273369  24.6239094  65.1226703
   3.5033213  24.5095689  66.0320577   2.3577868  24.2256579  65.0838876
   2.9020259  18.8365752  74.6631346   2.2491710  19.0841659  74.0083799
   3.2800639  18.0229890  74.3293823   2.5441490  25.7113748  81.2403654
   3.0881394  26.3243706  80.7458608   1.9628334  26.2693326  81.7570667
   0.8299002  28.8334466  72.3718681   0.7050142  28.0324206  71.8629627
   1.4878094  29.3280659  71.8832651   2.8933911  26.6343486  73.9998231
   1.9464246  26.5148837  73.9276558   3.2416684  25.7465984  74.0824493
   3.5014466  27.2524761  71.2867456   4.4261014  27.0467622  71.1491908
   3.3329769  27.0041162  72.1956798   3.2909782  27.7710428  66.6429548
   3.4646660  27.2056851  65.8903400   3.7838673  28.5711323  66.4609038
   9.1449173  20.5346851  68.2619848   9.5880319  19.7854177  67.8638971
   8.2675684  20.5256988  67.8793580   4.2784955  27.0877193  63.7426446
   4.9735859  27.7083886  63.9613761   4.6208105  26.2372544  64.0178824
   6.1776378  24.5376898  65.2713777   6.7027702  24.8764171  64.5463097
   6.0898730  23.6023914  65.0876912   5.8670284  25.1709802  80.5764975
   5.0765828  25.1533941  80.0369474   5.6303638  25.7098096  81.3314011
   5.9868159  22.0202268  77.8897703   6.0366164  21.8552276  78.8313226
   5.8782082  21.1529527  77.4995584   3.2771921  18.0033196  79.2057010
   4.1781784  17.8639661  78.9141008   3.3519896  18.1687651  80.1455188
   7.4886356  24.4399210  78.1339725   7.1971164  24.8029190  78.9703186
   6.8758487  23.7266218  77.9553057   8.6882038  22.0052090  70.6542295
   9.5228929  22.4441894  70.8179856   8.8241167  21.5290743  69.8350541
   5.7373544  19.5631825  76.6019783   6.2127666  19.7559471  75.7938634
   4.8139109  19.6191010  76.3563167   4.4375213  16.4397585  74.8348089
   5.3892636  16.5395682  74.8560313   4.2678663  15.6475853  75.3446173
   1.5897083  27.4776095  63.7810122   2.5227756  27.4121656  63.9842998
   1.5020296  28.3132361  63.3224655   4.2185100  26.7941965  60.7414070
   4.1398731  26.4601829  61.6349828   5.0394766  27.2863733  60.7405542
   6.9163291  19.6603704  73.9490388   6.8839611  18.7219705  74.1350072
   7.5263914  19.7387741  73.2156213   7.0657779  16.4514748  73.9948671
   6.5496828  15.6673204  73.8078600   7.9497728  16.1233464  74.1595191
  12.7339841  20.7219711  73.0896425  13.4643229  20.4604999  73.6504128
  12.1246786  19.9848433  73.1298493  10.8155138  18.8627574  73.6870876
  10.0888301  18.7283539  73.0787368  10.4002425  19.1704402  74.4927594
   5.9960374  14.3711807  69.9830367   6.7720764  14.8608259  70.2554984
   5.2708508  14.7969861  70.4402237   8.4332933  15.0839426  71.0404308
   9.0277424  14.8435162  70.3297616   8.5059516  14.3646556  71.6677844
   1.7889051  24.1109960  60.3624048   2.4924902  24.3159963  60.9781704
   1.0651700  24.6786722  60.6273131   2.6186862  19.8619822  66.4826318
   2.5622063  20.3188373  65.6433951   3.1715204  19.1010506  66.3049161
   6.4291668  15.6509554  67.3076438   6.1728602  15.2506189  68.1384645
   5.8044536  16.3653347  67.1826577  10.7404005  18.3905627  69.8147729
  10.1803563  18.4598816  70.5879291  10.1347509  18.2146611  69.0947225
   3.6975749  24.5492490  62.4122508   4.5321353  24.1173688  62.2299983
   3.5360092  24.3774503  63.3399402   3.3521641  21.0524603  63.7778847
   3.2970445  20.8868874  62.8367291   2.7267696  21.7600636  63.9341037
  12.3260024  35.0662141  72.5077685  12.9638434  34.9468888  71.8041025
  12.2080867  36.0142985  72.5665637   9.1349730  35.0189569  72.4439209
   8.7968242  34.9030634  71.5559744  10.0039498  34.6180734  72.4240216
   4.9936546  36.8725045  68.4336100   4.4301411  36.7814982  67.6652388
   4.8788941  36.0524950  68.9138593   9.6169513  36.1724421  78.4025415
   9.6058154  35.7777219  77.5305919   9.7790153  35.4390493  78.9959186
   2.5400978  38.3676237  71.2720321   3.3322270  38.0267061  70.8566620
   2.7797628  38.4771212  72.1922474  10.5736105  40.5396013  63.7450565
   9.9224084  41.1250093  63.3584579  11.3680467  41.0702208  63.8045603
   4.4991732  37.6285150  64.1437700   5.2722608  37.0814137  64.0050575
   4.8517131  38.4929399  64.3552161   6.3376774  38.9561532  77.3504599
   6.0466640  39.8607163  77.2351265   6.9733759  38.9978060  78.0648669
   7.2632981  36.3338381  73.9405959   7.8596553  36.1094403  73.2262922
   7.3207953  35.5923126  74.5431406   6.8358010  33.7877816  61.7756150
   7.0883530  33.2659337  61.0139613   5.8982569  33.6243962  61.8782833
  11.8801292  32.7913595  69.5830893  12.6664382  32.3733018  69.2321310
  12.1439997  33.6959687  69.7512541  12.0511370  38.2286445  64.2819550
  11.4157203  38.3021071  64.9940454  11.7208776  38.8180044  63.6038629
  17.2809720  32.7288828  70.4863871  18.0134891  32.1588045  70.7201701
  16.5249075  32.3410428  70.9270377   6.5554298  35.6905922  63.9780525
   6.4390556  35.0150826  64.6461609   6.6656558  35.2038296  63.1612678
   8.8985839  35.1516069  67.6827214   8.5344046  34.6246690  68.3940135
   9.7552955  34.7614538  67.5093699  14.8035140  26.4410402  74.9458480
  14.4718465  27.3105813  74.7219695  14.2080753  26.1246686  75.6252510
   8.5391326  30.1805969  62.6788562   8.7065729  31.0486205  63.0459033
   8.3488495  30.3433251  61.7549852  11.2966659  38.6422948  74.3454393
  10.9967383  39.5447987  74.2370200  10.9517719  38.3755131  75.1975546
   4.7479141  35.0936745  70.3791097   3.8229637  34.9612959  70.5868789
   4.9963554  35.8730964  70.8761039  14.6963803  31.1605488  72.0251830
  13.7880681  31.0920896  71.7310591  14.6451399  31.6377433  72.8533655
   8.5180547  32.6363626  63.6635229   8.3980172  33.0820677  64.5020709
   7.8233135  32.9848944  63.1048767   2.1087952  34.7370018  71.2134886
   2.2380333  34.9904497  72.1274298   1.4285403  35.3297726  70.8939541
   6.2787439  45.4067268  67.3125360   6.2011469  46.3575093  67.3913841
   5.6749083  45.0613141  67.9700287   8.7704669  32.5795134  79.9686727
   7.9938003  33.1389054  79.9589592   9.4095232  33.0651917  80.4901597
  16.5625450  29.3621926  73.8029704  15.9199830  29.6554460  73.1569498
  16.0580378  29.2474847  74.6082901  14.2165613  33.1085100  64.4915563
  15.1283469  33.3412486  64.3163261  13.7075260  33.6922144  63.9290642
   7.0251041  35.3880587  79.5304694   7.7665726  35.9265631  79.2539518
   6.3188027  36.0146876  79.6876246  12.5006381  37.5309727  78.1276856
  12.9089737  37.0892138  77.3831488  11.7783642  36.9562355  78.3811049
   8.8537451  32.4682334  75.5010413   9.6998646  32.8921748  75.6445062
   8.7936089  31.8115959  76.1948976  12.8235196  38.0910918  71.8829145
  12.1944058  38.2556632  71.1805212  12.4360858  38.5052528  72.6540109
  16.7024427  39.0265356  69.2373508  16.0175466  39.4064257  68.6870542
  16.7868277  39.6360683  69.9705456  12.0036896  30.1286703  77.1591586
  11.7597828  30.8828763  76.6225862  12.2796827  30.5072050  77.9938833
  13.9575359  36.6725315  75.8368852  14.1692254  37.3157075  75.1603233
  13.9105107  35.8387632  75.3690782  11.5601588  29.2843136  72.7405424
  10.6986067  29.5824389  73.0322162  11.5864023  29.5013534  71.8086457
   8.3763157  37.8285326  69.1479230   8.8401503  38.1073029  68.3583852
   8.1119956  36.9268771  68.9652320   5.2687239  37.3756808  72.0858993
   5.8388596  37.8044076  71.4476477   5.8595350  37.0939392  72.7843179
   7.3132044  33.9508479  65.9568795   8.0156087  34.4029522  66.4242721
   6.9812672  33.3092297  66.5848688   5.7612405  32.5420235  80.3320004
   5.1311066  33.2236516  80.5655401   5.6548493  32.4303317  79.3873142
  15.0721187  39.5497270  74.0091209  15.8938631  39.1477458  73.7273891
  15.0683590  39.4465505  74.9607325   3.0072123  32.5736610  68.2169405
   2.2103286  32.6855305  68.7352901   2.7797715  32.9123263  67.3510296
   8.8377790  39.0981314  76.1651920   8.9022223  39.5601721  77.0010092
   8.1288714  38.4678679  76.2934230  23.1627180  35.8936019  70.3576181
  22.4090888  35.3243417  70.2020185  23.2974721  35.8598683  71.3046815
   8.5525808  40.7649421  66.0330900   8.4171483  41.6100957  66.4615748
   9.0935621  40.9668699  65.2696834   5.0393148  26.8441001  82.6945255
   4.6460093  26.2907200  83.3692900   5.8559288  27.1551579  83.0851773
   2.0055206  38.2824859  66.6058825   2.5179726  39.0768109  66.7564390
   2.6577918  37.5851150  66.5392427   3.8150090  41.3990615  68.6881578
   3.9916719  42.3208580  68.5002562   4.6106924  41.0849035  69.1175958
   7.9561109  28.2598880  80.2865512   8.6970822  28.8606033  80.2069974
   8.1879032  27.5176518  79.7283554   3.1002447  33.4455247  78.5643742
   2.9855962  32.5440505  78.8650840   2.2446965  33.6918944  78.2128558
  10.1794285  41.3872988  80.1631242   9.7358139  40.6009366  79.8452147
  10.8411498  41.5752138  79.4975133   4.9381406  42.9168789  74.6891921
   5.4888831  42.7885853  73.9168915   4.0992882  43.2163678  74.3386813
  12.2775523  41.6675788  78.1912643  12.2593998  42.4884669  77.6992913
  13.1995443  41.5429863  78.4162785   8.7348577  39.1819917  79.0336152
   9.2676914  38.4208205  78.8035460   8.2062658  38.8893569  79.7760306
  11.9018272  24.2879983  74.5629794  11.5582541  25.1781625  74.4868904
  12.2697234  24.0981641  73.6999379  11.8668554  34.2788594  63.0702229
  11.3515178  35.0493199  63.3090616  11.5945863  33.6053730  63.6935290
   9.4515665  29.1238295  68.1287467   8.5957262  28.7345145  67.9493106
   9.8642617  29.2030256  67.2687253  10.9814812  26.6584638  72.5279027
  10.4779608  26.6214773  71.7146832  11.2745419  27.5677381  72.5875683
   7.2257698  26.7423368  71.5345209   8.0910695  26.5466177  71.1751098
   7.2935207  26.5133720  72.4614565  16.8402829  37.0320949  65.0055402
  16.0632271  36.6932108  64.5610564  17.5194310  37.0373572  64.3310367
  11.6554858  32.1515686  64.8962010  11.3504993  32.4661835  65.7472153
  12.6085300  32.2297106  64.9389343  10.1001289  38.3105910  66.5454964
   9.5722651  37.5758669  66.2328201   9.5988792  39.0880586  66.2994932
  15.0794135  36.5054930  71.6622010  14.4217810  37.1954191  71.7502139
  15.8834535  36.8951362  72.0055996   4.8320017  28.9725576  68.9061575
   5.4063769  28.7500757  68.1734768   5.4190999  29.0414270  69.6590177
  13.8899594  34.8599303  69.7125952  14.4031476  35.4929295  70.2147662
  14.5400818  34.2600498  69.3469312   5.1589604  31.0030037  62.9257461
   4.3226916  31.3404723  63.2466735   5.0194374  30.8679017  61.9884598
   7.1342685  25.8466825  67.6336645   6.4807097  25.5315842  67.0093260
   7.0923159  25.2242565  68.3596468   8.2453890  36.1286120  59.5489937
   7.3380951  35.8975373  59.7481086   8.7424922  35.3323739  59.7363918
  11.1521969  44.8383627  62.4686623  10.4783667  45.1415324  63.0771581
  11.5387790  45.6412707  62.1192080  10.3680425  32.3348758  71.9584292
   9.4502986  32.5563705  71.8005980  10.7840569  32.4095069  71.0996000
  11.1515473  33.7340174  67.0886973  11.8987292  34.2461571  66.7794095
  11.4207062  33.4124227  67.9491366   9.4242123  36.2298715  64.0713927
   8.5153342  35.9457748  64.1686397   9.4537207  36.6497793  63.2117234
  14.6561390  39.8405304  67.8405094  14.2023718  38.9996214  67.8970285
  14.0255357  40.4766703  68.1779875  13.5994310  30.7697290  69.0705762
  12.8617067  30.2574676  69.4016004  13.8521084  30.3297672  68.2589039
  13.0994330  41.6781801  68.7754913  13.3917304  42.2386858  68.0567278
  13.6092950  41.9710362  69.5308072  13.7005937  23.5473542  69.6647531
  14.0064814  22.6870906  69.3773446  14.4258542  24.1391162  69.4646525
   7.9727017  33.8427335  70.1723722   8.0275627  32.8901172  70.0966199
   7.1618219  33.9986774  70.6565021   9.1218211  37.7707458  61.4102005
   8.6837641  37.0543317  60.9507643   9.8628652  37.9983573  60.8487097
   5.9119377  32.4604395  67.9314101   5.0987243  32.7598566  68.3379293
   6.4078371  32.0660084  68.6488583   8.0627955  42.4562152  69.8648366
   8.0204134  42.6822998  68.9356898   8.9790654  42.2225527  70.0134167
  11.5093589  32.9246220  76.7628995  11.8642976  33.1517693  77.6223461
  12.1565720  33.2564596  76.1406250  17.2391326  36.0464655  67.4678324
  17.1009224  36.2366251  66.5399513  16.8827544  36.8084038  67.9246375
   5.4033452  30.0322751  73.5475336   6.0432831  29.8911510  72.8498299
   4.5710982  29.7457264  73.1713938  17.2660705  38.1141182  72.4789596
  17.6997212  38.0216472  73.3272650  17.9792286  38.0898683  71.8409612
   6.1793756  39.3325181  69.6610329   6.9734354  38.8375501  69.4592904
   5.4685448  38.8043044  69.2978034  10.9988600  41.7143277  74.0122696
  11.0525622  42.2834213  74.7800412  10.1303382  41.8845162  73.6476733
   2.4876519  33.4768263  65.7370081   1.5574107  33.4152718  65.9540043
   2.5833991  32.9544215  64.9406722   2.4062068  30.0023076  68.3248323
   2.6668885  30.9168409  68.2157483   3.2279241  29.5347518  68.4744936
   3.8786994  31.4160833  75.4947147   4.5510047  31.2078195  74.8459796
   3.0516780  31.2182919  75.0552380  18.1276255  38.1564883  75.0122481
  18.3212145  39.0610694  75.2581756  18.0276873  37.6972302  75.8461066
   9.7812566  28.0422774  77.5112808   9.1340481  28.7412723  77.4177285
  10.5513581  28.4758918  77.8789056  13.1891363  38.3071626  80.5863362
  13.0376870  38.0782178  79.6693445  13.1796043  39.2642227  80.5994707
   9.9576700  35.8803539  75.5709628  10.8868760  36.0314698  75.3978595
   9.5367730  35.9687559  74.7158275   8.7565032  39.9054203  73.3408166
   8.6176117  39.5372987  74.2134104   7.9679628  40.4201842  73.1692123
   9.3513184  45.0063299  64.6833702   9.5264939  44.5351343  65.4979325
   8.6645972  45.6329066  64.9114963  10.3070247  39.2835806  70.7297003
   9.9720079  39.2436576  71.6254653   9.8074193  38.6180522  70.2567414
   4.2814491  34.6903436  76.2549585   4.1434289  33.9583675  76.8561124
   5.1919414  34.6012336  75.9733772  13.2429438  36.6291840  61.0034063
  12.6258609  35.9038668  60.9067116  12.7745927  37.3901200  60.6601137
   6.9096791  34.4023395  75.7433264   7.6196410  33.7616587  75.7019883
   6.8666100  34.6536290  76.6659445  14.8983570  41.3390748  78.6639843
  14.8396116  40.6549968  77.9970426  15.3003089  42.0809738  78.2120469
   5.6225725  31.3888613  77.5628904   5.0863082  30.9379351  78.2150500
   5.0342434  31.5234522  76.8199368   3.9174269  48.1552662  71.4573562
   4.1570867  48.7871186  72.1352581   3.0743465  47.8040702  71.7438922
   5.0327984  30.8477264  60.1255367   4.1557451  30.7266065  59.7617614
   5.5085737  30.0563343  59.8734256  14.9000977  39.3030332  76.8953823
  14.0127756  38.9656254  77.0180222  15.4699528  38.5713364  77.1322589
   1.3564847  30.5244621  74.6481898   1.2723035  29.9170290  73.9132308
   0.5347553  31.0153639  74.6491395   8.4302131  43.9631785  73.8615066
   8.3572302  44.7686756  74.3734371   7.9879524  44.1623750  73.0363088
   8.2191910  43.2003555  67.3717888   7.4359432  43.7425235  67.4656112
   8.9184656  43.7177534  67.7712129  11.5288561  29.0098184  70.0152093
  12.0257260  28.2568146  69.6953163  10.7575542  29.0462501  69.4495303
  19.3818318  34.7138550  71.6570385  19.3708194  35.5963265  71.2864318
  18.5135697  34.3610100  71.4624922  10.8900814  43.8618619  76.0173225
  11.6028787  44.4966083  75.9449126  10.3990843  43.9582485  75.2013227
  12.6118341  37.7669871  67.5890517  11.6774620  37.8871334  67.4195221
  12.7895010  36.8642338  67.3250526   8.1123529  31.1515567  69.7423778
   7.7421317  30.5986608  70.4304683   8.6082622  30.5473701  69.1898778
  15.9990893  33.6087191  68.1240551  16.4651345  34.4415182  68.0500853
  16.4498393  33.1432172  68.8285809   5.9412728  41.6113062  76.8378796
   6.6422187  42.2449545  76.9908190   5.4707843  41.9527794  76.0774435
  14.0667124  39.9531012  65.1226703  14.3426968  39.8387607  66.0320577
  13.1971622  39.5548497  65.0838876  13.9707555  25.9767778  72.1631452
  13.0570635  26.2072004  72.3313659  14.4000657  26.0606222  73.0145484
  13.7414014  34.1657670  74.6631346  13.0885464  34.4133577  74.0083799
  14.1194394  33.3521808  74.3293823  10.7021188  44.2017363  68.7659516
  10.8843582  43.3839019  69.2287269  11.5254174  44.4185055  68.3284406
  11.0363353  43.1285548  66.0274565  11.5651120  42.6178002  65.4144727
  11.2991573  42.8128078  66.8920098   9.7901587  34.9077481  81.1497383
   9.1142224  34.8071610  81.8199758  10.6129221  34.7516694  81.6133380
   1.5380446  41.1449417  73.7709898   2.1233883  40.3993105  73.9037803
   1.3405284  41.4553374  74.6546562   4.3919101  44.1800665  68.7872341
   3.7229476  44.6646792  68.3036381   4.2531971  44.4269885  69.7015719
   8.5324370  46.2144408  75.3854999   9.0842678  46.3776030  76.1504084
   8.8730563  46.8048846  74.7135024   3.5088863  28.5619558  75.9876884
   3.5730189  29.4234389  75.5754282   3.4455983  27.9493560  75.2549242
   2.9841135  30.6342690  79.6349918   3.6113174  30.2519768  80.2487443
   2.1269054  30.4156892  80.0005611  13.3835244  41.0405666  81.2403654
  13.9275148  41.6535624  80.7458608  12.8022089  41.5985244  81.7570667
  11.6692757  44.1626384  72.3718681  11.5443896  43.3616123  71.8629627
  12.3271848  44.6572577  71.8832651   3.2900925  30.5175116  71.5495822
   2.5687511  31.1311084  71.4103295   4.0794181  31.0532881  71.4712468
  13.7327665  41.9635404  73.9998231  12.7858001  41.8440755  73.9276558
  14.0810438  41.0757902  74.0824493   6.0927239  27.8529543  77.8236473
   6.6161641  28.0991839  78.5862783   5.8739572  28.6849577  77.4039611
   1.4894520  30.1233217  65.6907598   1.1607226  29.2430596  65.5082704
   1.8433891  30.0680886  66.5783987  10.7374099  41.7588120  70.2002584
  10.5899061  40.8304827  70.3810154  11.5627592  41.7808211  69.7159659
   4.6036343  30.4106187  66.0583076   4.9432415  30.9392108  65.3361684
   5.0508463  30.7486593  66.8341642  14.3408221  42.5816679  71.2867456
  15.2654768  42.3759540  71.1491908  14.1723524  42.3333080  72.1956798
   7.2979784  28.7943238  75.5086144   6.9576604  27.9951051  75.9106824
   6.5918790  29.0944949  74.9362977   7.9496256  25.8792550  73.9613467
   8.7722325  25.4053028  73.8392357   8.1934319  26.6583034  74.4612153
   6.5904490  28.9080809  64.2576369   7.3112853  29.2862061  63.7540085
   5.9669794  29.6269685  64.3611347  10.7335613  29.6125958  65.1934701
  10.9499227  30.4950595  64.8923529  10.2529680  29.2212171  64.4640343
   5.4734834  32.5711671  71.7705446   5.3279415  32.8851974  72.6629727
   4.9960038  33.1896571  71.2176344   7.3331217  29.5614219  71.8186335
   7.3192786  28.6655312  71.4818633   8.0503645  29.5684883  72.4524621
   9.1857348  29.9951559  73.8639463   8.9275126  30.9168630  73.8623793
   8.6542388  29.5981994  74.5539927  14.1303537  43.1002346  66.6429548
  14.3040414  42.5348769  65.8903400  14.6232428  43.9003241  66.4609038
   6.7368113  28.4428599  67.0873905   6.8584024  27.5145245  67.2864793
   6.4470156  28.4567285  66.1752221   9.6059304  26.1283509  70.2240625
   9.6281000  26.1922843  69.2692605  10.0227363  25.2888018  70.4181131
  19.9842928  35.8638769  68.2619848  20.4274074  35.1146094  67.8638971
  19.1069438  35.8548905  67.8793580  15.1178709  42.4169111  63.7426446
  15.8129614  43.0375803  63.9613761  15.4601859  41.5664462  64.0178824
  17.0170132  39.8668816  65.2713777  17.5421456  40.2056089  64.5463097
  16.9292485  38.9315831  65.0876912   8.6790181  43.7802890  77.4003654
   8.9877307  43.5352036  78.2726353   9.4765663  43.9849528  76.9122524
   8.7010793  45.9340799  69.6309030   8.2615783  45.4417178  70.3241887
   9.4518910  45.3913767  69.3901105   1.1803132  42.1252340  69.6333658
   2.0061152  41.8256112  69.2532302   0.8297184  41.3559963  70.0823447
   6.1484665  41.4778808  71.7031332   5.5264675  40.8149513  71.4033560
   6.8189532  41.5039940  71.0204980   6.2209193  29.9560596  81.2963838
   6.2697348  30.8322719  80.9141607   6.7631707  29.4137989  80.7235481
  16.7064038  40.5001720  80.5764975  15.9159582  40.4825859  80.0369474
  16.4697393  41.0390013  81.3314011  16.8261913  37.3494186  77.8897703
  16.8759918  37.1844193  78.8313226  16.7175837  36.4821445  77.4995584
   5.7098172  40.0282732  65.1789792   5.8586293  40.7118196  64.5256465
   6.5164616  40.0087822  65.6939248  14.1165676  33.3325114  79.2057010
  15.0175539  33.1931579  78.9141008  14.1913650  33.4979569  80.1455188
   8.4508481  30.7091969  78.0510196   7.5811791  31.0025535  77.7792785
   8.6867962  31.2932414  78.7717460  18.3280110  39.7691128  78.1339725
  18.0364919  40.1321108  78.9703186  17.7152242  39.0558136  77.9553057
  19.5275793  37.3344007  70.6542295  20.3622684  37.7733811  70.8179856
  19.6634921  36.8582661  69.8350541  16.5767299  34.8923742  76.6019783
  17.0521420  35.0851389  75.7938634  15.6532864  34.9482928  76.3563167
   3.4650805  36.0547909  66.1850861   3.2196847  35.1510239  66.3831071
   3.6346720  36.0565060  65.2430339  11.1547515  26.9271586  75.5675617
  11.6729459  27.6632613  75.2422105  10.8002648  27.2335579  76.4022376
   2.7346453  31.7876267  63.6837023   2.0415698  31.8620622  63.0277059
   2.4898205  31.0236611  64.2058540  11.4060109  23.3471868  71.0876513
  11.6861863  22.6795057  71.7136940  12.1910716  23.5400964  70.5751177
   9.2093578  42.5230862  62.6501540   8.6367545  43.1421049  62.1972012
   9.7826371  43.0730224  63.1841462  15.2768968  31.7689502  74.8348089
  16.2286390  31.8687600  74.8560313  15.1072418  30.9767771  75.3446173
  13.2983347  28.8545085  75.0207490  12.7033279  29.1350098  74.3253978
  13.0133044  29.3438986  75.7924231  12.4290837  42.8068012  63.7810122
  13.3621511  42.7413574  63.9842998  12.3414050  43.6424279  63.3224655
  15.0578854  42.1233883  60.7414070  14.9792486  41.7893746  61.6349828
  15.8788521  42.6155651  60.7405542  17.7557045  34.9895622  73.9490388
  17.7233365  34.0511623  74.1350072  18.3657669  35.0679659  73.2156213
   9.5940376  33.8591675  59.9917592  10.5399481  33.7297883  60.0606010
   9.2154621  33.1206337  60.4687020  17.9051534  31.7806665  73.9948671
  17.3890582  30.9965122  73.8078600  18.7891482  31.4525382  74.1595191
  15.5662261  25.5247681  69.9544484  15.3687082  25.2162769  70.8387816
  16.1761966  26.2509320  70.0842414  23.5733595  36.0511629  73.0896425
  24.3036984  35.7896917  73.6504128  22.9640541  35.3140351  73.1298493
  21.6548892  34.1919491  73.6870876  20.9282056  34.0575456  73.0787368
  21.2396179  34.4996320  74.4927594   9.4779069  37.9109421  81.4518249
  10.3982078  38.0888020  81.6458296   9.4428652  36.9665466  81.2997949
   7.7783293  31.7841651  59.9272478   6.8714749  31.4874764  60.0035191
   8.0559274  31.4871469  59.0606764   2.4741141  35.8210456  74.0941030
   2.6927151  36.7527564  74.1129064   2.8866915  35.4618430  74.8795834
   9.3945359  26.3278541  66.0816719   8.5846087  25.9825626  66.4571965
  10.0829776  26.0186085  66.6704330  11.3235907  25.4056588  67.7041015
  11.8766946  25.8252041  68.3631039  11.5605994  24.4792336  67.7463971
   7.3469007  31.3943661  83.4843779   7.2465733  32.3438018  83.4155870
   7.1290549  31.0661900  82.6119849   6.5482078  28.6428587  60.0684457
   7.4101242  28.9683485  60.3280274   6.7332422  27.8560082  59.5557522
  14.7014714  27.5157113  67.2119680  14.1213383  28.1741917  66.8297732
  14.4350647  26.6934458  66.8007097  13.1518281  26.9162171  69.4141000
  13.6518059  27.0278705  68.6055319  13.7953889  26.6123224  70.0541808
   7.2100277  34.8240800  82.3008841   6.7267358  35.6241160  82.5072730
   7.2961216  34.8348745  81.3476285   0.4786236  36.6569180  70.2230660
   0.4556924  36.7556867  69.2712543   0.7886873  37.5034331  70.5447826
   3.1373614  38.7145335  74.3377275   4.0916868  38.6829277  74.2707206
   2.9386138  38.2535959  75.1527501   3.7272996  37.2846451  76.9048072
   4.5465885  37.7790530  76.9282910   4.0009804  36.3678419  76.8765640
  13.4839592  29.6757203  66.2676028  12.5965447  29.9606854  66.0496223
  13.8993582  29.5150967  65.4203305  16.8354129  29.7003724  69.9830367
  17.6114519  30.1900177  70.2554984  16.1102263  30.1261779  70.4402237
  19.2726687  30.4131344  71.0404308  19.8671178  30.1727080  70.3297616
  19.3453271  29.6938474  71.6677844   1.4923843  44.2564955  71.3547473
   1.3578311  43.4965355  70.7885471   1.0755905  44.9805854  70.8876262
  12.6282806  39.4401878  60.3624048  13.3318656  39.6451881  60.9781704
  11.9045455  40.0078640  60.6273131  13.4580616  35.1911739  66.4826318
  13.4015818  35.6480291  65.6433951  14.0108959  34.4302424  66.3049161
  17.2685422  30.9801471  67.3076438  17.0122356  30.5798107  68.1384645
  16.6438290  31.6945265  67.1826577  21.5797760  33.7197544  69.8147729
  21.0197318  33.7890734  70.5879291  20.9741263  33.5438529  69.0947225
   4.6492969  45.1534272  71.5665915   4.5325353  46.0979704  71.4644606
   3.8285415  44.8507833  71.9551714  14.5369503  39.8784407  62.4122508
  15.3715107  39.4465606  62.2299983  14.3753846  39.7066421  63.3399402
  14.1915396  36.3816521  63.7778847  14.1364199  36.2160792  62.8367291
  13.5661451  37.0892553  63.9341037  11.5061303  38.6865432  83.1032410
  12.3752462  38.8606085  82.7419045  11.0268054  39.5059849  82.9808139
   7.5011521  25.8824630  63.3564166   7.4890191  26.8266470  63.5132437
   8.3934943  25.6994775  63.0623627   5.6747483  45.8062533  74.7821844
   6.5774730  45.8386144  75.0988339   5.4484853  44.8762984  74.7968180
   7.4301085  44.5593520  71.4431922   6.4796716  44.5595382  71.3296295
   7.7333571  43.8126255  70.9267957  11.3163640  22.4767406  67.6110102
  10.5496036  21.9225893  67.7566785  11.7274345  22.5489275  68.4724254
   3.3205401  28.7652202  81.7015284   4.1836863  28.4089007  81.9118608
   2.7470812  28.4266097  82.3890688  23.1653778  50.3954058  72.5077685
  23.8032188  50.2760806  71.8041025  23.0474621  51.3434902  72.5665637
  19.9743485  50.3481486  72.4439209  19.6361996  50.2322551  71.5559744
  20.8433253  49.9472652  72.4240216  15.8330300  52.2016963  68.4336100
  15.2695166  52.1106900  67.6652388  15.7182695  51.3816867  68.9138593
  20.4563268  51.5016338  78.4025415  20.4451908  51.1069136  77.5305919
  20.6183907  50.7682411  78.9959186  13.3794732  53.6968154  71.2720321
  14.1716024  53.3558979  70.8566620  13.6191382  53.8063130  72.1922474
  21.4129859  55.8687931  63.7450565  20.7617839  56.4542011  63.3584579
  22.2074222  56.3994126  63.8045603  15.3385486  52.9577068  64.1437700
  16.1116362  52.4106055  64.0050575  15.6910885  53.8221317  64.3552161
  17.1770529  54.2853450  77.3504599  16.8860395  55.1899081  77.2351265
  17.8127513  54.3269978  78.0648669  18.1026736  51.6630299  73.9405959
  18.6990308  51.4386321  73.2262922  18.1601707  50.9215044  74.5431406
  17.6751764  49.1169734  61.7756150  17.9277285  48.5951255  61.0139613
  16.7376323  48.9535879  61.8782833  22.7195047  48.1205512  69.5830893
  23.5058136  47.7024935  69.2321310  22.9833751  49.0251604  69.7512541
  22.8905124  53.5578363  64.2819550  22.2550957  53.6312989  64.9940454
  22.5602531  54.1471961  63.6038629  28.1203474  48.0580745  70.4863871
  28.8528646  47.4879962  70.7201701  27.3642830  47.6702346  70.9270377
  17.3948053  51.0197840  63.9780525  17.2784311  50.3442743  64.6461609
  17.5050313  50.5330214  63.1612678  19.7379594  50.4807987  67.6827214
  19.3737801  49.9538608  68.3940135  20.5946710  50.0906456  67.5093699
  25.6428894  41.7702320  74.9458480  25.3112219  42.6397731  74.7219695
  25.0474508  41.4538604  75.6252510  19.3785081  45.5097887  62.6788562
  19.5459483  46.3778123  63.0459033  19.1882250  45.6725168  61.7549852
  22.1360414  53.9714866  74.3454393  21.8361137  54.8739904  74.2370200
  21.7911473  53.7047049  75.1975546  15.5872895  50.4228662  70.3791097
  14.6623392  50.2904876  70.5868789  15.8357309  51.2022882  70.8761039
  25.5357558  46.4897406  72.0251830  24.6274435  46.4212814  71.7310591
  25.4845153  46.9669351  72.8533655  19.3574302  47.9655544  63.6635229
  19.2373927  48.4112595  64.5020709  18.6626890  48.3140862  63.1048767
  12.9481706  50.0661936  71.2134886  13.0774088  50.3196415  72.1274298
  12.2679158  50.6589644  70.8939541  17.1181194  60.7359186  67.3125360
  17.0405223  61.6867011  67.3913841  16.5142837  60.3905058  67.9700287
  19.6098423  47.9087051  79.9686727  18.8331758  48.4680971  79.9589592
  20.2488987  48.3943834  80.4901597  27.4019204  44.6913844  73.8029704
  26.7593584  44.9846377  73.1569498  26.8974133  44.5766764  74.6082901
  25.0559368  48.4377017  64.4915563  25.9677224  48.6704404  64.3163261
  24.5469015  49.0214062  63.9290642  17.8644796  50.7172505  79.5304694
  18.6059480  51.2557549  79.2539518  17.1581781  51.3438793  79.6876246
  23.3400135  52.8601645  78.1276856  23.7483491  52.4184056  77.3831488
  22.6177397  52.2854273  78.3811049  19.6931205  47.7974252  75.5010413
  20.5392401  48.2213665  75.6445062  19.6329843  47.1407876  76.1948976
  23.6628950  53.4202836  71.8829145  23.0337813  53.5848550  71.1805212
  23.2754612  53.8344445  72.6540109  27.5418182  54.3557274  69.2373508
  26.8569220  54.7356175  68.6870542  27.6262031  54.9652600  69.9705456
  22.8430651  45.4578620  77.1591586  22.5991583  46.2120681  76.6225862
  23.1190581  45.8363968  77.9938833  24.7969114  52.0017233  75.8368852
  25.0086009  52.6448993  75.1603233  24.7498862  51.1679549  75.3690782
  22.3995343  44.6135053  72.7405424  21.5379822  44.9116307  73.0322162
  22.4257777  44.8305452  71.8086457  19.2156912  53.1577244  69.1479230
  19.6795257  53.4364947  68.3583852  18.9513710  52.2560688  68.9652320
  16.1080993  52.7048725  72.0858993  16.6782350  53.1335994  71.4476477
  16.6989105  52.4231310  72.7843179  18.1525798  49.2800396  65.9568795
  18.8549841  49.7321440  66.4242721  17.8206426  48.6384215  66.5848688
  16.6006160  47.8712153  80.3320004  15.9704820  48.5528434  80.5655401
  16.4942247  47.7595234  79.3873142  11.8951132  47.5383949  71.2585928
  11.1050186  47.7941477  70.7826039  12.3862379  48.3532287  71.3637969
  25.9114942  54.8789188  74.0091209  26.7332385  54.4769375  73.7273891
  25.9077344  54.7757422  74.9607325  13.8465877  47.9028528  68.2169405
  13.0497041  48.0147222  68.7352901  13.6191470  48.2415180  67.3510296
  19.6771545  54.4273231  76.1651920  19.7415977  54.8893639  77.0010092
  18.9682469  53.7970596  76.2934230  10.1788835  47.7914439  73.6900919
  10.4296873  48.6761449  73.9558495  10.7148383  47.6119041  72.9176011
  34.0020935  51.2227937  70.3576181  33.2484643  50.6535335  70.2020185
  34.1368476  51.1890601  71.3046815  19.3919563  56.0941339  66.0330900
  19.2565237  56.9392875  66.4615748  19.9329375  56.2960616  65.2696834
  15.8786902  42.1732919  82.6945255  15.4853848  41.6199117  83.3692900
  16.6953043  42.4843497  83.0851773  12.8448960  53.6116777  66.6058825
  13.3573481  54.4060027  66.7564390  13.4971673  52.9143067  66.5392427
  14.6543845  56.7282533  68.6881578  14.8310473  57.6500498  68.5002562
  15.4500678  56.4140952  69.1175958  18.7954863  43.5890798  80.2865512
  19.5364577  44.1897951  80.2069974  19.0272786  42.8468436  79.7283554
  13.9396201  48.7747165  78.5643742  13.8249716  47.8732422  78.8650840
  13.0840719  49.0210862  78.2128558  21.0188039  56.7164905  80.1631242
  20.5751893  55.9301284  79.8452147  21.6805253  56.9044056  79.4975133
  15.7775160  58.2460707  74.6891921  16.3282585  58.1177770  73.9168915
  14.9386636  58.5455596  74.3386813  23.1169277  56.9967705  78.1912643
  23.0987752  57.8176586  77.6992913  24.0389197  56.8721780  78.4162785
  19.5742331  54.5111835  79.0336152  20.1070668  53.7500123  78.8035460
  19.0456412  54.2185487  79.7760306  22.7412026  39.6171901  74.5629794
  22.3976296  40.5073542  74.4868904  23.1090989  39.4273558  73.6999379
  10.8097877  51.9405431  67.3818396  11.6473099  52.3502440  67.1652103
  10.9876144  51.0004873  67.3518590  22.7062309  49.6080512  63.0702229
  22.1908932  50.3785116  63.3090616  22.4339617  48.9345648  63.6935290
  20.2909420  44.4530213  68.1287467  19.4351016  44.0637063  67.9493106
  20.7036372  44.5322173  67.2687253  21.8208567  41.9876556  72.5279027
  21.3173362  41.9506691  71.7146832  22.1139173  42.8969299  72.5875683
  18.0651452  42.0715286  71.5345209  18.9304449  41.8758094  71.1751098
  18.1328961  41.8425637  72.4614565  27.6796583  52.3612866  65.0055402
  26.9026026  52.0224026  64.5610564  28.3588064  52.3665490  64.3310367
  22.4948612  47.4807604  64.8962010  22.1898748  47.7953753  65.7472153
  23.4479054  47.5589024  64.9389343  20.9395044  53.6397827  66.5454964
  20.4116406  52.9050587  66.2328201  20.4382547  54.4172504  66.2994932
  25.9187890  51.8346848  71.6622010  25.2611564  52.5246109  71.7502139
  26.7228289  52.2243280  72.0055996  15.6713772  44.3017494  68.9061575
  16.2457523  44.0792675  68.1734768  16.2584754  44.3706188  69.6590177
  24.7293349  50.1891220  69.7125952  25.2425230  50.8221212  70.2147662
  25.3794573  49.5892416  69.3469312  15.9983359  46.3321955  62.9257461
  15.1620671  46.6696641  63.2466735  15.8588128  46.1970934  61.9884598
  17.9736439  41.1758742  67.6336645  17.3200852  40.8607760  67.0093260
  17.9316913  40.5534483  68.3596468  19.0847644  51.4578038  59.5489937
  18.1774706  51.2267291  59.7481086  19.5818676  50.6615657  59.7363918
  21.9915723  60.1675545  62.4686623  21.3177422  60.4707241  63.0771581
  22.3781545  60.9704625  62.1192080  21.2074180  47.6640676  71.9584292
  20.2896741  47.8855623  71.8005980  21.6234323  47.7386986  71.0996000
  21.9909227  49.0632092  67.0886973  22.7381046  49.5753489  66.7794095
  22.2600817  48.7416144  67.9491366  20.2635878  51.5590632  64.0713927
  19.3547097  51.2749665  64.1686397  20.2930961  51.9789711  63.2117234
  25.4955145  55.1697222  67.8405094  25.0417472  54.3288132  67.8970285
  24.8649112  55.8058620  68.1779875  24.4388065  46.0989208  69.0705762
  23.7010821  45.5866594  69.4016004  24.6914838  45.6589590  68.2589039
  23.9388084  57.0073719  68.7754913  24.2311059  57.5678776  68.0567278
  24.4486705  57.3002280  69.5308072  24.5399692  38.8765460  69.6647531
  24.8458569  38.0162823  69.3773446  25.2652297  39.4683080  69.4646525
  10.8324048  49.2796146  68.0529129  10.6348448  48.6865507  67.3280196
  10.2770712  48.9748357  68.7705068  18.8120772  49.1719253  70.1723722
  18.8669381  48.2193089  70.0966199  18.0011974  49.3278692  70.6565021
  19.9611965  53.0999376  61.4102005  19.5231395  52.3835235  60.9507643
  20.7022406  53.3275491  60.8487097  16.7513132  47.7896313  67.9314101
  15.9380997  48.0890483  68.3379293  17.2472126  47.3952001  68.6488583
  18.9021709  57.7854070  69.8648366  18.8597888  58.0114916  68.9356898
  19.8184408  57.5517444  70.0134167  22.3487343  48.2538137  76.7628995
  22.7036731  48.4809610  77.6223461  22.9959474  48.5856514  76.1406250
  28.0785080  51.3756573  67.4678324  27.9402979  51.5658169  66.5399513
  27.7221299  52.1375956  67.9246375  16.2427206  45.3614668  73.5475336
  16.8826586  45.2203427  72.8498299  15.4104737  45.0749182  73.1713938
  28.1054460  53.4433100  72.4789596  28.5390966  53.3508389  73.3272650
  28.8186040  53.4190601  71.8409612  17.0187510  54.6617099  69.6610329
  17.8128109  54.1667419  69.4592904  16.3079203  54.1334962  69.2978034
  21.8382355  57.0435194  74.0122696  21.8919377  57.6126131  74.7800412
  20.9697136  57.2137079  73.6476733  13.3270274  48.8060180  65.7370081
  12.3967862  48.7444636  65.9540043  13.4227746  48.2836133  64.9406722
  13.2455823  45.3314993  68.3248323  13.5062640  46.2460326  68.2157483
  14.0672995  44.8639436  68.4744936  14.7180748  46.7452750  75.4947147
  15.3903801  46.5370113  74.8459796  13.8910535  46.5474836  75.0552380
  28.9670009  53.4856801  75.0122481  29.1605899  54.3902611  75.2581756
  28.8670627  53.0264220  75.8461066  20.6206320  43.3714691  77.5112808
  19.9734235  44.0704641  77.4177285  21.3907335  43.8050835  77.8789056
  24.0285118  53.6363543  80.5863362  23.8770624  53.4074095  79.6693445
  24.0189797  54.5934145  80.5994707  20.7970454  51.2095456  75.5709628
  21.7262514  51.3606616  75.3978595  20.3761484  51.2979477  74.7158275
  19.5958786  55.2346121  73.3408166  19.4569872  54.8664905  74.2134104
  18.8073382  55.7493760  73.1692123  20.1906938  60.3355217  64.6833702
  20.3658694  59.8643260  65.4979325  19.5039726  60.9620983  64.9114963
  21.1464001  54.6127723  70.7297003  20.8113834  54.5728493  71.6254653
  20.6467947  53.9472439  70.2567414  15.1208245  50.0195353  76.2549585
  14.9828043  49.2875592  76.8561124  16.0313169  49.9304253  75.9733772
  24.0823193  51.9583758  61.0034063  23.4652364  51.2330586  60.9067116
  23.6139681  52.7193118  60.6601137  17.7490546  49.7315313  75.7433264
  18.4590164  49.0908505  75.7019883  17.7059854  49.9828208  76.6659445
  25.7377325  56.6682666  78.6639843  25.6789871  55.9841886  77.9970426
  26.1396843  57.4101656  78.2120469  16.4619480  46.7180531  77.5628904
  15.9256837  46.2671269  78.2150500  15.8736188  46.8526439  76.8199368
  14.7568023  63.4844580  71.4573562  14.9964622  64.1163104  72.1352581
  13.9137220  63.1332620  71.7438922  15.8721739  46.1769182  60.1255367
  14.9951205  46.0557983  59.7617614  16.3479492  45.3855260  59.8734256
  25.7394732  54.6322250  76.8953823  24.8521511  54.2948172  77.0180222
  26.3093283  53.9005281  77.1322589   7.3923879  50.9646342  70.2196874
   8.0794919  50.6508072  69.6317890   7.2372008  51.8687706  69.9464126
  12.1958601  45.8536538  74.6481898  12.1116790  45.2462208  73.9132308
  11.3741308  46.3445557  74.6491395  19.2695885  59.2923702  73.8615066
  19.1966057  60.0978674  74.3734371  18.8273278  59.4915668  73.0363088
  19.0585665  58.5295472  67.3717888  18.2753187  59.0717153  67.4656112
  19.7578410  59.0469452  67.7712129  22.3682315  44.3390102  70.0152093
  22.8651015  43.5860064  69.6953163  21.5969297  44.3754418  69.4495303
  30.2212072  50.0430467  71.6570385  30.2101949  50.9255183  71.2864318
  29.3529452  49.6902018  71.4624922  21.7294569  59.1910536  76.0173225
  22.4422541  59.8258001  75.9449126  21.2384597  59.2874402  75.2013227
  23.4512096  53.0961789  67.5890517  22.5168374  53.2163251  67.4195221
  23.6288764  52.1934256  67.3250526  18.9517284  46.4807485  69.7423778
  18.5815071  45.9278525  70.4304683  19.4476376  45.8765618  69.1898778
  26.8384647  48.9379108  68.1240551  27.3045099  49.7707100  68.0500853
  27.2892148  48.4724090  68.8285809  16.7806482  56.9404980  76.8378796
  17.4815942  57.5741463  76.9908190  16.3101597  57.2819711  76.0774435
  24.9060878  55.2822930  65.1226703  25.1820722  55.1679524  66.0320577
  24.0365377  54.8840414  65.0838876  24.8101310  41.3059695  72.1631452
  23.8964390  41.5363922  72.3313659  25.2394411  41.3898139  73.0145484
  24.5807768  49.4949587  74.6631346  23.9279219  49.7425495  74.0083799
  24.9588148  48.6813725  74.3293823  21.5414942  59.5309280  68.7659516
  21.7237337  58.7130936  69.2287269  22.3647928  59.7476973  68.3284406
  21.8757108  58.4577466  66.0274565  22.4044874  57.9469920  65.4144727
  22.1385327  58.1419996  66.8920098  20.6295341  50.2369398  81.1497383
  19.9535978  50.1363528  81.8199758  21.4522975  50.0808612  81.6133380
  12.3774200  56.4741335  73.7709898  12.9627637  55.7285023  73.9037803
  12.1799039  56.7845292  74.6546562  15.2312856  59.5092582  68.7872341
  14.5623231  59.9938710  68.3036381  15.0925725  59.7561803  69.7015719
   6.9691855  49.0446935  72.4914342   7.0075955  48.5110526  73.2851460
   6.4632148  48.5182141  71.8725319  19.3718124  61.5436326  75.3854999
  19.9236432  61.7067947  76.1504084  19.7124318  62.1340764  74.7135024
  14.3482617  43.8911476  75.9876884  14.4123944  44.7526306  75.5754282
  14.2849738  43.2785477  75.2549242  13.8234890  45.9634608  79.6349918
  14.4506929  45.5811685  80.2487443  12.9662809  45.7448810  80.0005611
  24.2228999  56.3697583  81.2403654  24.7668903  56.9827542  80.7458608
  23.6415843  56.9277162  81.7570667  10.6000433  47.7711037  65.5668273
  10.8953874  46.8621716  65.5135327   9.6988468  47.7498777  65.2449275
  22.5086511  59.4918301  72.3718681  22.3837651  58.6908041  71.8629627
  23.1665603  59.9864495  71.8832651  14.1294680  45.8467034  71.5495822
  13.4081265  46.4603002  71.4103295  14.9187935  46.3824799  71.4712468
  24.5721420  57.2927321  73.9998231  23.6251755  57.1732673  73.9276558
  24.9204193  56.4049819  74.0824493  16.9320993  43.1821460  77.8236473
  17.4555395  43.4283757  78.5862783  16.7133327  44.0141495  77.4039611
  12.3288274  45.4525135  65.6907598  12.0000980  44.5722514  65.5082704
  12.6827645  45.3972804  66.5783987  21.5767853  57.0880038  70.2002584
  21.4292816  56.1596745  70.3810154  22.4021347  57.1100128  69.7159659
  15.4430097  45.7398105  66.0583076  15.7826170  46.2684026  65.3361684
  15.8902218  46.0778511  66.8341642  25.1801975  57.9108596  71.2867456
  26.1048522  57.7051458  71.1491908  25.0117278  57.6624997  72.1956798
  18.1373538  44.1235155  75.5086144  17.7970359  43.3242968  75.9106824
  17.4312545  44.4236866  74.9362977  18.7890010  41.2084468  73.9613467
  19.6116079  40.7344946  73.8392357  19.0328074  41.9874952  74.4612153
  17.4298245  44.2372726  64.2576369  18.1506607  44.6153979  63.7540085
  16.8063549  44.9561603  64.3611347  21.5729367  44.9417875  65.1934701
  21.7892982  45.8242513  64.8923529  21.0923435  44.5504089  64.4640343
  16.3128589  47.9003588  71.7705446  16.1673170  48.2143892  72.6629727
  15.8353792  48.5188489  71.2176344  18.1724972  44.8906136  71.8186335
  18.1586541  43.9947230  71.4818633  18.8897400  44.8976800  72.4524621
  20.0251102  45.3243477  73.8639463  19.7668880  46.2460547  73.8623793
  19.4936143  44.9273911  74.5539927  24.9697291  58.4294264  66.6429548
  25.1434169  57.8640686  65.8903400  25.4626182  59.2295159  66.4609038
  10.7874251  50.4408933  74.7093107  10.2427719  51.2168741  74.8413381
  11.6653601  50.7879737  74.5512228  17.5761868  43.7720517  67.0873905
  17.6977779  42.8437163  67.2864793  17.2863910  43.7859203  66.1752221
  20.4453058  41.4575427  70.2240625  20.4674755  41.5214760  69.2692605
  20.8621117  40.6179936  70.4181131  30.8236682  51.1930687  68.2619848
  31.2667828  50.4438012  67.8638971  29.9463193  51.1840823  67.8793580
  25.9572464  57.7461028  63.7426446  26.6523368  58.3667721  63.9613761
  26.2995614  56.8956379  64.0178824  11.5740273  49.5678829  77.6023264
  10.8322009  49.7161464  78.1887894  11.2533017  49.8287095  76.7390013
  27.8563887  55.1960734  65.2713777  28.3815211  55.5348006  64.5463097
  27.7686239  54.2607749  65.0876912  19.5183936  59.1094807  77.4003654
  19.8271062  58.8643954  78.2726353  20.3159418  59.3141446  76.9122524
  19.5404548  61.2632717  69.6309030  19.1009538  60.7709096  70.3241887
  20.2912665  60.7205685  69.3901105  12.0196887  57.4544258  69.6333658
  12.8454906  57.1548030  69.2532302  11.6690939  56.6851880  70.0823447
  16.9878420  56.8070726  71.7031332  16.3658429  56.1441431  71.4033560
  17.6583287  56.8331858  71.0204980  10.2205492  55.3730584  70.5922592
   9.3837400  54.9452759  70.4106593  10.1929137  55.5663028  71.5293383
  17.0602947  45.2852514  81.2963838  17.1091103  46.1614637  80.9141607
  17.6025461  44.7429907  80.7235481  27.5457793  55.8293637  80.5764975
  26.7553337  55.8117776  80.0369474  27.3091147  56.3681931  81.3314011
  27.6655668  52.6786104  77.8897703  27.7153673  52.5136111  78.8313226
  27.5569591  51.8113363  77.4995584  16.5491927  55.3574649  65.1789792
  16.6980047  56.0410114  64.5256465  17.3558370  55.3379739  65.6939248
  24.9559430  48.6617032  79.2057010  25.8569293  48.5223497  78.9141008
  25.0307405  48.8271487  80.1455188  19.2902236  46.0383887  78.0510196
  18.4205545  46.3317453  77.7792785  19.5261716  46.6224332  78.7717460
  29.1673865  55.0983045  78.1339725  28.8758673  55.4613026  78.9703186
  28.5545996  54.3850054  77.9553057  30.3669547  52.6635925  70.6542295
  31.2016438  53.1025729  70.8179856  30.5028676  52.1874578  69.8350541
  27.4161053  50.2215660  76.6019783  27.8915175  50.4143306  75.7938634
  26.4926618  50.2774846  76.3563167  14.3044560  51.3839827  66.1850861
  14.0590602  50.4802157  66.3831071  14.4740474  51.3856978  65.2430339
  21.9941270  42.2563503  75.5675617  22.5123213  42.9924530  75.2422105
  21.6396402  42.5627497  76.4022376  13.5740207  47.1168185  63.6837023
  12.8809452  47.1912540  63.0277059  13.3291959  46.3528528  64.2058540
  22.2453864  38.6763786  71.0876513  22.5255617  38.0086975  71.7136940
  23.0304471  38.8692882  70.5751177  20.0487332  57.8522780  62.6501540
  19.4761299  58.4712967  62.1972012  20.6220126  58.4022142  63.1841462
  26.1162722  47.0981420  74.8348089  27.0680145  47.1979518  74.8560313
  25.9466172  46.3059689  75.3446173  24.1377101  44.1837003  75.0207490
  23.5427034  44.4642016  74.3253978  23.8526798  44.6730904  75.7924231
  23.2684592  58.1359930  63.7810122  24.2015265  58.0705492  63.9842998
  23.1807805  58.9716197  63.3224655  28.5950800  50.3187540  73.9490388
  28.5627120  49.3803540  74.1350072  29.2051423  50.3971576  73.2156213
  20.4334131  49.1883593  59.9917592  21.3793235  49.0589801  60.0606010
  20.0548376  48.4498255  60.4687020  28.7445288  47.1098583  73.9948671
  28.2284337  46.3257040  73.8078600  29.6285237  46.7817300  74.1595191
  26.4056015  40.8539599  69.9544484  26.2080836  40.5454687  70.8387816
  27.0155721  41.5801238  70.0842414  34.4127350  51.3803546  73.0896425
  35.1430738  51.1188835  73.6504128  33.8034295  50.6432268  73.1298493
  32.4942647  49.5211409  73.6870876  31.7675810  49.3867374  73.0787368
  32.0789934  49.8288238  74.4927594  20.3172823  53.2401339  81.4518249
  21.2375833  53.4179938  81.6458296  20.2822406  52.2957384  81.2997949
  18.6177048  47.1133569  59.9272478  17.7108503  46.8166682  60.0035191
  18.8953029  46.8163387  59.0606764   9.5354988  48.4339932  70.3771524
   9.2157773  47.5805241  70.0845898   8.9888416  48.6488511  71.1329491
  13.3134896  51.1502373  74.0941030  13.5320906  52.0819481  74.1129064
  13.7260670  50.7910348  74.8795834  20.2339114  41.6570459  66.0816719
  19.4239842  41.3117544  66.4571965  20.9223530  41.3478002  66.6704330
  22.1629662  40.7348506  67.7041015  22.7160700  41.1543959  68.3631039
  22.3999748  39.8084254  67.7463971  18.1862761  46.7235579  83.4843779
  18.0859488  47.6729936  83.4155870  17.9684303  46.3953818  82.6119849
  17.3875832  43.9720504  60.0684457  18.2494996  44.2975403  60.3280274
  17.5726177  43.1852000  59.5557522   9.4043248  52.0542844  72.3464645
   8.7106720  51.6396797  71.8334600  10.1516239  52.0963380  71.7498064
  25.5408469  42.8449031  67.2119680  24.9607138  43.5033835  66.8297732
  25.2744402  42.0226375  66.8007097  23.9912035  42.2454088  69.4141000
  24.4911814  42.3570623  68.6055319  24.6347643  41.9415141  70.0541808
  18.0494031  50.1532718  82.3008841  17.5661113  50.9533078  82.5072730
  18.1354970  50.1640663  81.3476285  11.3179991  51.9861098  70.2230660
  11.2950679  52.0848785  69.2712543  11.6280627  52.8326248  70.5447826
  13.9767369  54.0437253  74.3377275  14.9310622  54.0121195  74.2707206
  13.7779892  53.5827876  75.1527501  14.5666751  52.6138369  76.9048072
  15.3859640  53.1082447  76.9282910  14.8403558  51.6970337  76.8765640
  24.3233347  45.0049121  66.2676028  23.4359202  45.2898772  66.0496223
  24.7387336  44.8442884  65.4203305  27.6747883  45.0295642  69.9830367
  28.4508273  45.5192095  70.2554984  26.9496017  45.4553696  70.4402237
  30.1120442  45.7423261  71.0404308  30.7064933  45.5018997  70.3297616
  30.1847025  45.0230392  71.6677844  12.3317597  59.5856872  71.3547473
  12.1972065  58.8257273  70.7885471  11.9149660  60.3097772  70.8876262
  23.4676560  54.7693796  60.3624048  24.1712411  54.9743798  60.9781704
  22.7439209  55.3370558  60.6273131  24.2974371  50.5203657  66.4826318
  24.2409572  50.9772208  65.6433951  24.8502713  49.7594342  66.3049161
  28.1079177  46.3093389  67.3076438  27.8516111  45.9090025  68.1384645
  27.4832045  47.0237183  67.1826577  32.4191514  49.0489462  69.8147729
  31.8591072  49.1182651  70.5879291  31.8135018  48.8730447  69.0947225
  15.4886723  60.4826189  71.5665915  15.3719107  61.4271622  71.4644606
  14.6679170  60.1799751  71.9551714  25.0309150  51.7108438  63.7778847
  24.9757954  51.5452710  62.8367291  24.4055205  52.4184471  63.9341037
   9.8201665  46.9476503  77.6040270  10.4660529  46.4375457  78.0927495
   9.6118816  47.6845184  78.1783695  22.3455057  54.0157350  83.1032410
  23.2146217  54.1898002  82.7419045  21.8661809  54.8351767  82.9808139
  18.3405275  41.2116547  63.3564166  18.3283945  42.1558387  63.5132437
  19.2328697  41.0286693  63.0623627  16.5141237  61.1354451  74.7821844
  17.4168484  61.1678061  75.0988339  16.2878607  60.2054902  74.7968180
  18.2694839  59.8885438  71.4431922  17.3190470  59.8887299  71.3296295
  18.5727326  59.1418172  70.9267957  22.1557395  37.8059324  67.6110102
  21.3889791  37.2517811  67.7566785  22.5668100  37.8781193  68.4724254
  14.1599156  44.0944120  81.7015284  15.0230618  43.7380925  81.9118608
  13.5864567  43.7558015  82.3890688  31.2957022  66.8308256  78.4025415
  31.2845663  66.4361054  77.5305919  31.4577662  66.0974329  78.9959186
  24.2188487  69.0260072  71.2720321  25.0109779  68.6850897  70.8566620
  24.4585137  69.1355047  72.1922474  28.0164283  69.6145368  77.3504599
  27.7254149  70.5190999  77.2351265  28.6521268  69.6561895  78.0648669
  28.9420490  66.9922216  73.9405959  29.5384062  66.7678239  73.2262922
  28.9995462  66.2506962  74.5431406  38.9597229  63.3872663  70.4863871
  39.6922400  62.8171880  70.7201701  38.2036584  62.9994264  70.9270377
  36.4822649  57.0994237  74.9458480  36.1505974  57.9689648  74.7219695
  35.8868262  56.7830521  75.6252510  32.9754168  69.3006783  74.3454393
  32.6754891  70.2031822  74.2370200  32.6305228  69.0338966  75.1975546
  26.4266650  65.7520580  70.3791097  25.5017146  65.6196794  70.5868789
  26.6751063  66.5314799  70.8761039  36.3751312  61.8189323  72.0251830
  35.4668190  61.7504732  71.7310591  36.3238908  62.2961268  72.8533655
  23.7875461  65.3953854  71.2134886  23.9167842  65.6488333  72.1274298
  23.1072912  65.9881562  70.8939541  30.4492178  63.2378969  79.9686727
  29.6725512  63.7972889  79.9589592  31.0882741  63.7235752  80.4901597
  38.2412959  60.0205762  73.8029704  37.5987339  60.3138295  73.1569498
  37.7367887  59.9058682  74.6082901  35.8953122  63.7668935  64.4915563
  36.8070978  63.9996322  64.3163261  35.3862769  64.3505979  63.9290642
  28.7038550  66.0464422  79.5304694  29.4453235  66.5849466  79.2539518
  27.9975536  66.6730711  79.6876246  34.1793890  68.1893563  78.1276856
  34.5877246  67.7475973  77.3831488  33.4571151  67.6146190  78.3811049
  30.5324960  63.1266170  75.5010413  31.3786155  63.5505583  75.6445062
  30.4723598  62.4699794  76.1948976  38.3811936  69.6849191  69.2373508
  37.6962975  70.0648093  68.6870542  38.4655786  70.2944518  69.9705456
  33.6824405  60.7870538  77.1591586  33.4385337  61.5412598  76.6225862
  33.9584336  61.1655886  77.9938833  35.6362868  67.3309150  75.8368852
  35.8479763  67.9740910  75.1603233  35.5892616  66.4971467  75.3690782
  33.2389097  59.9426971  72.7405424  32.3773576  60.2408225  73.0322162
  33.2651532  60.1597370  71.8086457  26.9474748  68.0340643  72.0858993
  27.5176105  68.4627911  71.4476477  27.5382859  67.7523228  72.7843179
  27.4399914  63.2004071  80.3320004  26.8098575  63.8820351  80.5655401
  27.3336002  63.0887152  79.3873142  22.7344886  62.8675867  71.2585928
  21.9443940  63.1233395  70.7826039  23.2256134  63.6824204  71.3637969
  36.7508696  70.2081106  74.0091209  37.5726140  69.8061293  73.7273891
  36.7471099  70.1049340  74.9607325  24.6859632  63.2320446  68.2169405
  23.8890795  63.3439140  68.7352901  24.4585224  63.5707098  67.3510296
  30.5165299  69.7565149  76.1651920  30.5809732  70.2185556  77.0010092
  29.8076223  69.1262514  76.2934230  21.0182589  63.1206357  73.6900919
  21.2690628  64.0053367  73.9558495  21.5542138  62.9410959  72.9176011
  26.7180657  57.5024836  82.6945255  26.3247602  56.9491035  83.3692900
  27.5346797  57.8135415  83.0851773  29.6348618  58.9182715  80.2865512
  30.3758331  59.5189869  80.2069974  29.8666541  58.1760353  79.7283554
  24.7789956  64.1039083  78.5643742  24.6643471  63.2024340  78.8650840
  23.9234473  64.3502779  78.2128558  31.8581793  72.0456823  80.1631242
  31.4145648  71.2593202  79.8452147  32.5199007  72.2335974  79.4975133
  26.6168915  73.5752625  74.6891921  27.1676340  73.4469688  73.9168915
  25.7780391  73.8747514  74.3386813  33.9563032  72.3259623  78.1912643
  33.9381507  73.1468504  77.6992913  34.8782952  72.2013698  78.4162785
  30.4136086  69.8403752  79.0336152  30.9464423  69.0792041  78.8035460
  29.8850167  69.5477404  79.7760306  33.5805781  54.9463818  74.5629794
  33.2370050  55.8365460  74.4868904  33.9484743  54.7565476  73.6999379
  21.6491631  67.2697349  67.3818396  22.4866853  67.6794357  67.1652103
  21.8269899  66.3296791  67.3518590  31.1303174  59.7822130  68.1287467
  30.2744771  59.3928981  67.9493106  31.5430126  59.8614091  67.2687253
  32.6602321  57.3168474  72.5279027  32.1567117  57.2798609  71.7146832
  32.9532928  58.2261216  72.5875683  28.9045207  57.4007203  71.5345209
  29.7698204  57.2050012  71.1751098  28.9722716  57.1717555  72.4614565
  36.7581644  67.1638765  71.6622010  36.1005319  67.8538027  71.7502139
  37.5622044  67.5535197  72.0055996  26.5107526  59.6309411  68.9061575
  27.0851278  59.4084593  68.1734768  27.0978508  59.6998106  69.6590177
  28.8130194  56.5050660  67.6336645  28.1594606  56.1899677  67.0093260
  28.7710668  55.8826401  68.3596468  32.0467934  62.9932594  71.9584292
  31.1290495  63.2147541  71.8005980  32.4628078  63.0678904  71.0996000
  35.2781819  61.4281126  69.0705762  34.5404576  60.9158512  69.4016004
  35.5308593  60.9881507  68.2589039  35.3793446  54.2057378  69.6647531
  35.6852323  53.3454741  69.3773446  36.1046051  54.7974998  69.4646525
  21.6717802  64.6088064  68.0529129  21.4742202  64.0157425  67.3280196
  21.1164466  64.3040274  68.7705068  27.5906886  63.1188230  67.9314101
  26.7774752  63.4182401  68.3379293  28.0865880  62.7243919  68.6488583
  33.1881098  63.5830055  76.7628995  33.5430485  63.8101528  77.6223461
  33.8353229  63.9148432  76.1406250  27.0820961  60.6906586  73.5475336
  27.7220340  60.5495345  72.8498299  26.2498491  60.4041099  73.1713938
  38.9448214  68.7725018  72.4789596  39.3784721  68.6800307  73.3272650
  39.6579795  68.7482518  71.8409612  32.6776109  72.3727112  74.0122696
  32.7313131  72.9418048  74.7800412  31.8090891  72.5428997  73.6476733
  24.0849577  60.6606911  68.3248323  24.3456394  61.5752244  68.2157483
  24.9066750  60.1931353  68.4744936  25.5574503  62.0744668  75.4947147
  26.2297556  61.8662030  74.8459796  24.7304289  61.8766754  75.0552380
  39.8063764  68.8148718  75.0122481  39.9999654  69.7194529  75.2581756
  39.7064382  68.3556137  75.8461066  31.4600075  58.7006609  77.5112808
  30.8127990  59.3996559  77.4177285  32.2301090  59.1342753  77.8789056
  34.8678872  68.9655461  80.5863362  34.7164379  68.7366013  79.6693445
  34.8583552  69.9226063  80.5994707  31.6364209  66.5387374  75.5709628
  32.5656269  66.6898534  75.3978595  31.2155239  66.6271395  74.7158275
  30.4352541  70.5638038  73.3408166  30.2963626  70.1956823  74.2134104
  29.6467137  71.0785678  73.1692123  25.9602000  65.3487271  76.2549585
  25.8221798  64.6167510  76.8561124  26.8706923  65.2596171  75.9733772
  28.5884300  65.0607230  75.7433264  29.2983919  64.4200423  75.7019883
  28.5453609  65.3120125  76.6659445  36.5771079  71.9974584  78.6639843
  36.5183625  71.3133804  77.9970426  36.9790597  72.7393574  78.2120469
  27.3013234  62.0472448  77.5628904  26.7650591  61.5963187  78.2150500
  26.7129943  62.1818357  76.8199368  25.5961778  78.8136498  71.4573562
  25.8358376  79.4455022  72.1352581  24.7530974  78.4624538  71.7438922
  36.5788486  69.9614168  76.8953823  35.6915265  69.6240089  77.0180222
  37.1487037  69.2297199  77.1322589  18.2317633  66.2938259  70.2196874
  18.9188673  65.9799989  69.6317890  18.0765762  67.1979624  69.9464126
  23.0352356  61.1828456  74.6481898  22.9510544  60.5754126  73.9132308
  22.2135062  61.6737474  74.6491395  30.1089640  74.6215620  73.8615066
  30.0359811  75.4270591  74.3734371  29.6667033  74.8207586  73.0363088
  33.2076070  59.6682019  70.0152093  33.7044769  58.9151982  69.6953163
  32.4363051  59.7046336  69.4495303  41.0605827  65.3722385  71.6570385
  41.0495703  66.2547100  71.2864318  40.1923206  65.0193936  71.4624922
  32.5688323  74.5202454  76.0173225  33.2816296  75.1549919  75.9449126
  32.0778352  74.6166320  75.2013227  29.7911038  61.8099402  69.7423778
  29.4208826  61.2570443  70.4304683  30.2870131  61.2057536  69.1898778
  37.6778402  64.2671026  68.1240551  38.1438854  65.0999018  68.0500853
  38.1285902  63.8016008  68.8285809  27.6200237  72.2696897  76.8378796
  28.3209696  72.9033380  76.9908190  27.1495352  72.6111629  76.0774435
  35.6495064  56.6351613  72.1631452  34.7358144  56.8655840  72.3313659
  36.0788166  56.7190057  73.0145484  35.4201523  64.8241505  74.6631346
  34.7672973  65.0717412  74.0083799  35.7981903  64.0105643  74.3293823
  31.4689096  65.5661316  81.1497383  30.7929733  65.4655445  81.8199758
  32.2916730  65.4100530  81.6133380  23.2167955  71.8033253  73.7709898
  23.8021392  71.0576940  73.9037803  23.0192793  72.1137209  74.6546562
  26.0706610  74.8384500  68.7872341  25.4016985  75.3230628  68.3036381
  25.9319480  75.0853720  69.7015719  17.8085610  64.3738853  72.4914342
  17.8469709  63.8402443  73.2851460  17.3025902  63.8474058  71.8725319
  30.2111879  76.8728243  75.3854999  30.7630187  77.0359865  76.1504084
  30.5518072  77.4632681  74.7135024  25.1876372  59.2203393  75.9876884
  25.2517698  60.0818224  75.5754282  25.1243492  58.6077395  75.2549242
  24.6628644  61.2926526  79.6349918  25.2900683  60.9103603  80.2487443
  23.8056563  61.0740728  80.0005611  35.0622753  71.6989501  81.2403654
  35.6062657  72.3119459  80.7458608  34.4809598  72.2569079  81.7570667
  21.4394187  63.1002955  65.5668273  21.7347628  62.1913633  65.5135327
  20.5382223  63.0790694  65.2449275  33.3480266  74.8210219  72.3718681
  33.2231405  74.0199959  71.8629627  34.0059357  75.3156412  71.8832651
  24.9688434  61.1758951  71.5495822  24.2475020  61.7894919  71.4103295
  25.7581690  61.7116716  71.4712468  35.4115174  72.6219239  73.9998231
  34.4645510  72.5024590  73.9276558  35.7597947  71.7341737  74.0824493
  27.7714748  58.5113378  77.8236473  28.2949150  58.7575675  78.5862783
  27.5527081  59.3433413  77.4039611  23.1682029  60.7817053  65.6907598
  22.8394735  59.9014431  65.5082704  23.5221399  60.7264721  66.5783987
  26.2823852  61.0690022  66.0583076  26.6219924  61.5975944  65.3361684
  26.7295972  61.4070428  66.8341642  36.0195729  73.2400514  71.2867456
  36.9442277  73.0343375  71.1491908  35.8511033  72.9916915  72.1956798
  28.9767293  59.4527073  75.5086144  28.6364113  58.6534886  75.9106824
  28.2706299  59.7528784  74.9362977  29.6283765  56.5376385  73.9613467
  30.4509834  56.0636864  73.8392357  29.8721828  57.3166869  74.4612153
  27.1522343  63.2295506  71.7705446  27.0066924  63.5435809  72.6629727
  26.6747547  63.8480406  71.2176344  29.0118726  60.2198054  71.8186335
  28.9980295  59.3239147  71.4818633  29.7291154  60.2268718  72.4524621
  30.8644857  60.6535394  73.8639463  30.6062635  61.5752465  73.8623793
  30.3329897  60.2565829  74.5539927  21.6268006  65.7700851  74.7093107
  21.0821474  66.5460659  74.8413381  22.5047355  66.1171655  74.5512228
  28.4155622  59.1012434  67.0873905  28.5371533  58.1729081  67.2864793
  28.1257665  59.1151120  66.1752221  31.2846813  56.7867345  70.2240625
  31.3068509  56.8506678  69.2692605  31.7014872  55.9471853  70.4181131
  41.6630437  66.5222604  68.2619848  42.1061583  65.7729930  67.8638971
  40.7856947  66.5132741  67.8793580  22.4134027  64.8970747  77.6023264
  21.6715763  65.0453382  78.1887894  22.0926772  65.1579012  76.7390013
  30.3577690  74.4386725  77.4003654  30.6664816  74.1935872  78.2726353
  31.1553172  74.6433364  76.9122524  30.3798302  76.5924635  69.6309030
  29.9403292  76.1001013  70.3241887  31.1306419  76.0497602  69.3901105
  22.8590641  72.7836176  69.6333658  23.6848661  72.4839947  69.2532302
  22.5084693  72.0143798  70.0823447  27.8272174  72.1362644  71.7031332
  27.2052184  71.4733349  71.4033560  28.4977041  72.1623776  71.0204980
  21.0599246  70.7022502  70.5922592  20.2231154  70.2744676  70.4106593
  21.0322892  70.8954945  71.5293383  27.8996702  60.6144432  81.2963838
  27.9484857  61.4906555  80.9141607  28.4419216  60.0721825  80.7235481
  38.3851547  71.1585555  80.5764975  37.5947091  71.1409694  80.0369474
  38.1484902  71.6973849  81.3314011  38.5049422  68.0078021  77.8897703
  38.5547427  67.8428029  78.8313226  38.3963346  67.1405280  77.4995584
  35.7953185  63.9908949  79.2057010  36.6963048  63.8515414  78.9141008
  35.8701159  64.1563404  80.1455188  30.1295990  61.3675804  78.0510196
  29.2599300  61.6609370  77.7792785  30.3655471  61.9516249  78.7717460
  40.0067619  70.4274963  78.1339725  39.7152428  70.7904943  78.9703186
  39.3939751  69.7141971  77.9553057  41.2063302  67.9927843  70.6542295
  42.0410193  68.4317647  70.8179856  41.3422430  67.5166496  69.8350541
  38.2554808  65.5507578  76.6019783  38.7308929  65.7435224  75.7938634
  37.3320373  65.6066763  76.3563167  32.8335024  57.5855421  75.5675617
  33.3516968  58.3216448  75.2422105  32.4790157  57.8919414  76.4022376
  24.4133962  62.4460102  63.6837023  23.7203207  62.5204457  63.0277059
  24.1685714  61.6820446  64.2058540  33.0847618  54.0055704  71.0876513
  33.3649372  53.3378893  71.7136940  33.8698225  54.1984799  70.5751177
  36.9556477  62.4273338  74.8348089  37.9073899  62.5271435  74.8560313
  36.7859927  61.6351606  75.3446173  34.9770856  59.5128921  75.0207490
  34.3820788  59.7933934  74.3253978  34.6920553  60.0022822  75.7924231
  39.4344554  65.6479457  73.9490388  39.4020874  64.7095458  74.1350072
  40.0445178  65.7263494  73.2156213  39.5839043  62.4390501  73.9948671
  39.0678091  61.6548957  73.8078600  40.4678991  62.1109217  74.1595191
  37.2449770  56.1831516  69.9544484  37.0474591  55.8746605  70.8387816
  37.8549475  56.9093155  70.0842414  31.1566578  68.5693256  81.4518249
  32.0769587  68.7471855  81.6458296  31.1216161  67.6249302  81.2997949
  20.3748743  63.7631850  70.3771524  20.0551527  62.9097158  70.0845898
  19.8282171  63.9780428  71.1329491  24.1528650  66.4794291  74.0941030
  24.3714660  67.4111399  74.1129064  24.5654424  66.1202265  74.8795834
  31.0732868  56.9862376  66.0816719  30.2633596  56.6409461  66.4571965
  31.7617285  56.6769920  66.6704330  33.0023416  56.0640423  67.7041015
  33.5554455  56.4835877  68.3631039  33.2393503  55.1376171  67.7463971
  29.0256516  62.0527497  83.4843779  28.9253242  63.0021854  83.4155870
  28.8078058  61.7245736  82.6119849  20.2437003  67.3834762  72.3464645
  19.5500474  66.9688714  71.8334600  20.9909994  67.4255298  71.7498064
  36.3802223  58.1740948  67.2119680  35.8000892  58.8325752  66.8297732
  36.1138156  57.3518293  66.8007097  34.8305790  57.5746006  69.4141000
  35.3305568  57.6862541  68.6055319  35.4741398  57.2707059  70.0541808
  28.8887786  65.4824636  82.3008841  28.4054867  66.2824996  82.5072730
  28.9748725  65.4932581  81.3476285  22.1573745  67.3153015  70.2230660
  22.1344433  67.4140703  69.2712543  22.4674382  68.1618166  70.5447826
  24.8161123  69.3729170  74.3377275  25.7704377  69.3413113  74.2707206
  24.6173647  68.9119794  75.1527501  25.4060505  67.9430286  76.9048072
  26.2253394  68.4374365  76.9282910  25.6797313  67.0262255  76.8765640
  35.1627101  60.3341039  66.2676028  34.2752956  60.6190689  66.0496223
  35.5781091  60.1734802  65.4203305  38.5141638  60.3587560  69.9830367
  39.2902028  60.8484012  70.2554984  37.7889772  60.7845614  70.4402237
  40.9514196  61.0715179  71.0404308  41.5458687  60.8310915  70.3297616
  41.0240780  60.3522310  71.6677844  23.1711352  74.9148790  71.3547473
  23.0365820  74.1549191  70.7885471  22.7543414  75.6389690  70.8876262
  38.9472931  61.6385307  67.3076438  38.6909865  61.2381942  68.1384645
  38.3225799  62.3529100  67.1826577  26.3280478  75.8118107  71.5665915
  26.2112862  76.7563539  71.4644606  25.5072924  75.5091668  71.9551714
  20.6595419  62.2768420  77.6040270  21.3054283  61.7667374  78.0927495
  20.4512571  63.0137102  78.1783695  33.1848812  69.3449268  83.1032410
  34.0539971  69.5189920  82.7419045  32.7055563  70.1643685  82.9808139
  27.3534992  76.4646369  74.7821844  28.2562239  76.4969979  75.0988339
  27.1272362  75.5346820  74.7968180  29.1088594  75.2177355  71.4431922
  28.1584225  75.2179217  71.3296295  29.4121080  74.4710090  70.9267957
  32.9951149  53.1351242  67.6110102  32.2283545  52.5809728  67.7566785
  33.4061854  53.2073110  68.4724254  24.9992910  59.4236037  81.7015284
  25.8624372  59.0672842  81.9118608  24.4258321  59.0849932  82.3890688
  44.8441287  81.0537894  72.5077685  45.4819697  80.9344641  71.8041025
  44.7262130  82.0018738  72.5665637  41.6530994  81.0065322  72.4439209
  41.3149505  80.8906387  71.5559744  42.5220762  80.6056487  72.4240216
  37.5117809  82.8600798  68.4336100  36.9482675  82.7690735  67.6652388
  37.3970204  82.0400703  68.9138593  42.1350777  82.1600174  78.4025415
  42.1239417  81.7652972  77.5305919  42.2971416  81.4266246  78.9959186
  35.0582241  84.3551990  71.2720321  35.8503533  84.0142814  70.8566620
  35.2978891  84.4646965  72.1922474  43.0917368  86.5271766  63.7450565
  42.4405348  87.1125846  63.3584579  43.8861731  87.0577961  63.8045603
  37.0172995  83.6160903  64.1437700  37.7903871  83.0689890  64.0050575
  37.3698394  84.4805152  64.3552161  38.8558038  84.9437285  77.3504599
  38.5647904  85.8482916  77.2351265  39.4915022  84.9853813  78.0648669
  39.7814245  82.3214134  73.9405959  40.3777817  82.0970156  73.2262922
  39.8389216  81.5798879  74.5431406  44.3982556  78.7789348  69.5830893
  45.1845645  78.3608771  69.2321310  44.6621260  79.6835440  69.7512541
  44.5692633  84.2162198  64.2819550  43.9338466  84.2896824  64.9940454
  44.2390040  84.8055797  63.6038629  39.0735562  81.6781675  63.9780525
  38.9571820  81.0026579  64.6461609  39.1837822  81.1914049  63.1612678
  41.4167103  81.1391822  67.6827214  41.0525310  80.6122443  68.3940135
  42.2734219  80.7490291  67.5093699  43.8147923  84.6298701  74.3454393
  43.5148646  85.5323740  74.2370200  43.4698982  84.3630884  75.1975546
  37.2660404  81.0812498  70.3791097  36.3410901  80.9488712  70.5868789
  37.5144818  81.8606717  70.8761039  34.6269215  80.7245771  71.2134886
  34.7561597  80.9780250  72.1274298  33.9466667  81.3173479  70.8939541
  38.7968703  91.3943021  67.3125360  38.7192732  92.3450846  67.3913841
  38.1930346  91.0488894  67.9700287  41.2885932  78.5670887  79.9686727
  40.5119267  79.1264807  79.9589592  41.9276496  79.0527670  80.4901597
  46.7346877  79.0960853  64.4915563  47.6464733  79.3288239  64.3163261
  46.2256524  79.6797897  63.9290642  39.5432305  81.3756340  79.5304694
  40.2846989  81.9141384  79.2539518  38.8369290  82.0022629  79.6876246
  45.0187644  83.5185480  78.1276856  45.4271000  83.0767891  77.3831488
  44.2964906  82.9438108  78.3811049  41.3718714  78.4558087  75.5010413
  42.2179910  78.8797501  75.6445062  41.3117352  77.7991712  76.1948976
  45.3416459  84.0786671  71.8829145  44.7125321  84.2432385  71.1805212
  44.9542121  84.4928281  72.6540109  49.2205691  85.0141109  69.2373508
  48.5356729  85.3940010  68.6870542  49.3049540  85.6236436  69.9705456
  44.5218160  76.1162456  77.1591586  44.2779092  76.8704516  76.6225862
  44.7978090  76.4947803  77.9938833  46.4756623  82.6601068  75.8368852
  46.6873518  83.3032828  75.1603233  46.4286371  81.8263385  75.3690782
  44.0782852  75.2718889  72.7405424  43.2167331  75.5700142  73.0322162
  44.1045286  75.4889288  71.8086457  40.8944421  83.8161079  69.1479230
  41.3582766  84.0948782  68.3583852  40.6301219  82.9144524  68.9652320
  37.7868502  83.3632561  72.0858993  38.3569859  83.7919829  71.4476477
  38.3776614  83.0815145  72.7843179  39.8313307  79.9384232  65.9568795
  40.5337350  80.3905275  66.4242721  39.4993935  79.2968050  66.5848688
  38.2793669  78.5295988  80.3320004  37.6492329  79.2112269  80.5655401
  38.1729756  78.4179070  79.3873142  33.5738641  78.1967784  71.2585928
  32.7837695  78.4525313  70.7826039  34.0649888  79.0116122  71.3637969
  47.5902450  85.5373023  74.0091209  48.4119894  85.1353211  73.7273891
  47.5864853  85.4341258  74.9607325  35.5253386  78.5612363  68.2169405
  34.7284550  78.6731058  68.7352901  35.2978979  78.8999016  67.3510296
  41.3559054  85.0857067  76.1651920  41.4203486  85.5477474  77.0010092
  40.6469978  84.4554432  76.2934230  31.8576344  78.4498275  73.6900919
  32.1084382  79.3345285  73.9558495  32.3935892  78.2702876  72.9176011
  41.0707072  86.7525174  66.0330900  40.9352746  87.5976710  66.4615748
  41.6116884  86.9544452  65.2696834  37.5574411  72.8316754  82.6945255
  37.1641357  72.2782953  83.3692900  38.3740552  73.1427333  83.0851773
  34.5236469  84.2700612  66.6058825  35.0360990  85.0643862  66.7564390
  35.1759182  83.5726903  66.5392427  36.3331354  87.3866369  68.6881578
  36.5097982  88.3084333  68.5002562  37.1288187  87.0724788  69.1175958
  40.4742372  74.2474633  80.2865512  41.2152086  74.8481786  80.2069974
  40.7060295  73.5052271  79.7283554  35.6183710  79.4331000  78.5643742
  35.5037225  78.5316258  78.8650840  34.7628228  79.6794697  78.2128558
  42.6975548  87.3748741  80.1631242  42.2539402  86.5885119  79.8452147
  43.3592762  87.5627891  79.4975133  37.4562669  88.9044542  74.6891921
  38.0070094  88.7761606  73.9168915  36.6174145  89.2039431  74.3386813
  44.7956786  87.6551541  78.1912643  44.7775261  88.4760422  77.6992913
  45.7176706  87.5305616  78.4162785  41.2529840  85.1695670  79.0336152
  41.7858177  84.4083958  78.8035460  40.7243921  84.8769322  79.7760306
  44.4199535  70.2755736  74.5629794  44.0763805  71.1657378  74.4868904
  44.7878498  70.0857394  73.6999379  32.4885386  82.5989267  67.3818396
  33.3260608  83.0086275  67.1652103  32.6663653  81.6588709  67.3518590
  44.3849818  80.2664347  63.0702229  43.8696441  81.0368952  63.3090616
  44.1127126  79.5929483  63.6935290  41.9696929  75.1114048  68.1287467
  41.1138525  74.7220898  67.9493106  42.3823881  75.1906009  67.2687253
  39.7438961  72.7299121  71.5345209  40.6091958  72.5341930  71.1751098
  39.8116470  72.5009473  72.4614565  49.3584092  83.0196702  65.0055402
  48.5813535  82.6807861  64.5610564  50.0375573  83.0249325  64.3310367
  44.1736121  78.1391439  64.8962010  43.8686257  78.4537588  65.7472153
  45.1266563  78.2172859  64.9389343  42.6182553  84.2981663  66.5454964
  42.0903914  83.5634422  66.2328201  42.1170056  85.0756339  66.2994932
  47.5975399  82.4930683  71.6622010  46.9399073  83.1829944  71.7502139
  48.4015798  82.8827115  72.0055996  37.3501281  74.9601329  68.9061575
  37.9245032  74.7376510  68.1734768  37.9372263  75.0290023  69.6590177
  46.4080858  80.8475056  69.7125952  46.9212739  81.4805048  70.2147662
  47.0582082  80.2476251  69.3469312  40.7635153  82.1161873  59.5489937
  39.8562215  81.8851126  59.7481086  41.2606185  81.3199492  59.7363918
  43.6703232  90.8259380  62.4686623  42.9964931  91.1291077  63.0771581
  44.0569054  91.6288460  62.1192080  42.8861689  78.3224511  71.9584292
  41.9684250  78.5439458  71.8005980  43.3021832  78.3970822  71.0996000
  43.6696736  79.7215927  67.0886973  44.4168555  80.2337324  66.7794095
  43.9388326  79.3999980  67.9491366  41.9423387  82.2174468  64.0713927
  41.0334606  81.9333501  64.1686397  41.9718470  82.6373546  63.2117234
  47.1742654  85.8281057  67.8405094  46.7204981  84.9871967  67.8970285
  46.5436621  86.4642456  68.1779875  45.6175593  87.6657554  68.7754913
  45.9098568  88.2262611  68.0567278  46.1274214  87.9586115  69.5308072
  32.5111557  79.9379982  68.0529129  32.3135957  79.3449343  67.3280196
  31.9558221  79.6332192  68.7705068  40.4908281  79.8303088  70.1723722
  40.5456890  78.8776925  70.0966199  39.6799483  79.9862527  70.6565021
  41.6399474  83.7583211  61.4102005  41.2018904  83.0419070  60.9507643
  42.3809915  83.9859326  60.8487097  38.4300640  78.4480148  67.9314101
  37.6168506  78.7474319  68.3379293  38.9259635  78.0535837  68.6488583
  40.5809218  88.4437905  69.8648366  40.5385397  88.6698751  68.9356898
  41.4971917  88.2101280  70.0134167  44.0274852  78.9121973  76.7628995
  44.3824240  79.1393446  77.6223461  44.6746983  79.2440349  76.1406250
  37.9214715  76.0198504  73.5475336  38.5614095  75.8787263  72.8498299
  37.0892246  75.7333017  73.1713938  49.7841969  84.1016935  72.4789596
  50.2178475  84.0092225  73.3272650  50.4973549  84.0774436  71.8409612
  38.6975019  85.3200934  69.6610329  39.4915618  84.8251254  69.4592904
  37.9866712  84.7918797  69.2978034  43.5169864  87.7019030  74.0122696
  43.5706886  88.2709966  74.7800412  42.6484645  87.8720915  73.6476733
  35.0057783  79.4644016  65.7370081  34.0755371  79.4028471  65.9540043
  35.1015255  78.9419969  64.9406722  34.9243332  75.9898829  68.3248323
  35.1850149  76.9044162  68.2157483  35.7460504  75.5223271  68.4744936
  36.3968257  77.4036586  75.4947147  37.0691310  77.1953948  74.8459796
  35.5698044  77.2058672  75.0552380  50.6457518  84.1440636  75.0122481
  50.8393408  85.0486447  75.2581756  50.5458136  83.6848055  75.8461066
  45.7072627  84.2947379  80.5863362  45.5558133  84.0657931  79.6693445
  45.6977306  85.2517980  80.5994707  42.4757963  81.8679292  75.5709628
  43.4050023  82.0190451  75.3978595  42.0548993  81.9563312  74.7158275
  41.2746295  85.8929956  73.3408166  41.1357381  85.5248740  74.2134104
  40.4860891  86.4077595  73.1692123  41.8694447  90.9939052  64.6833702
  42.0446203  90.5227096  65.4979325  41.1827235  91.6204819  64.9114963
  42.8251510  85.2711559  70.7297003  42.4901343  85.2312329  71.6254653
  42.3255456  84.6056275  70.2567414  36.7995754  80.6779189  76.2549585
  36.6615552  79.9459428  76.8561124  37.7100678  80.5888089  75.9733772
  45.7610702  82.6167593  61.0034063  45.1439873  81.8914421  60.9067116
  45.2927190  83.3776953  60.6601137  39.4278055  80.3899148  75.7433264
  40.1377673  79.7492340  75.7019883  39.3847363  80.6412043  76.6659445
  47.4164834  87.3266501  78.6639843  47.3577380  86.6425722  77.9970426
  47.8184352  88.0685491  78.2120469  38.1406989  77.3764366  77.5628904
  37.6044346  76.9255104  78.2150500  37.5523697  77.5110275  76.8199368
  36.4355532  94.1428415  71.4573562  36.6752131  94.7746939  72.1352581
  35.5924729  93.7916455  71.7438922  47.4182241  85.2906085  76.8953823
  46.5309020  84.9532007  77.0180222  47.9880792  84.5589117  77.1322589
  29.0711388  81.6230177  70.2196874  29.7582428  81.3091907  69.6317890
  28.9159517  82.5271542  69.9464126  33.8746110  76.5120374  74.6481898
  33.7904299  75.9046043  73.9132308  33.0528817  77.0029392  74.6491395
  40.9483394  89.9507538  73.8615066  40.8753566  90.7562509  74.3734371
  40.5060787  90.1499503  73.0363088  40.7373174  89.1879308  67.3717888
  39.9540696  89.7300988  67.4656112  41.4365919  89.7053287  67.7712129
  43.4082078  89.8494372  76.0173225  44.1210050  90.4841837  75.9449126
  42.9172106  89.9458238  75.2013227  45.1299605  83.7545624  67.5890517
  44.1955883  83.8747087  67.4195221  45.3076273  82.8518091  67.3250526
  40.6304793  77.1391320  69.7423778  40.2602580  76.5862361  70.4304683
  41.1263885  76.5349454  69.1898778  38.4593991  87.5988815  76.8378796
  39.1603451  88.2325298  76.9908190  37.9889106  87.9403547  76.0774435
  46.5848387  85.9406765  65.1226703  46.8608231  85.8263360  66.0320577
  45.7152886  85.5424250  65.0838876  46.2595277  80.1533423  74.6631346
  45.6066728  80.4009330  74.0083799  46.6375657  79.3397561  74.3293823
  43.2202451  90.1893116  68.7659516  43.4024846  89.3714772  69.2287269
  44.0435437  90.4060808  68.3284406  43.5544617  89.1161301  66.0274565
  44.0832383  88.6053756  65.4144727  43.8172836  88.8003831  66.8920098
  42.3082850  80.8953234  81.1497383  41.6323487  80.7947363  81.8199758
  43.1310484  80.7392447  81.6133380  34.0561709  87.1325170  73.7709898
  34.6415146  86.3868858  73.9037803  33.8586548  87.4429127  74.6546562
  36.9100365  90.1676418  68.7872341  36.2410740  90.6522545  68.3036381
  36.7713234  90.4145638  69.7015719  28.6479364  79.7030770  72.4914342
  28.6863464  79.1694361  73.2851460  28.1419657  79.1765976  71.8725319
  41.0505633  92.2020161  75.3854999  41.6023941  92.3651783  76.1504084
  41.3911827  92.7924599  74.7135024  36.0270126  74.5495311  75.9876884
  36.0911453  75.4110142  75.5754282  35.9637247  73.9369313  75.2549242
  35.5022399  76.6218443  79.6349918  36.1294438  76.2395521  80.2487443
  34.6450318  76.4032645  80.0005611  45.9016508  87.0281419  81.2403654
  46.4456411  87.6411377  80.7458608  45.3203352  87.5860997  81.7570667
  44.1874020  90.1502137  72.3718681  44.0625160  89.3491876  71.8629627
  44.8453112  90.6448330  71.8832651  35.8082189  76.5050869  71.5495822
  35.0868774  77.1186837  71.4103295  36.5975444  77.0408634  71.4712468
  46.2508929  87.9511157  73.9998231  45.3039264  87.8316508  73.9276558
  46.5991702  87.0633655  74.0824493  38.6108502  73.8405296  77.8236473
  39.1342904  74.0867592  78.5862783  38.3920835  74.6725330  77.4039611
  43.2555362  87.7463873  70.2002584  43.1080325  86.8180580  70.3810154
  44.0808856  87.7683964  69.7159659  37.1217606  76.3981940  66.0583076
  37.4613679  76.9267861  65.3361684  37.5689727  76.7362346  66.8341642
  46.8589484  88.5692432  71.2867456  47.7836031  88.3635293  71.1491908
  46.6904787  88.3208833  72.1956798  39.8161047  74.7818991  75.5086144
  39.4757868  73.9826804  75.9106824  39.1100054  75.0820702  74.9362977
  40.4677519  71.8668303  73.9613467  41.2903588  71.3928781  73.8392357
  40.7115583  72.6458787  74.4612153  43.2516876  75.6001711  65.1934701
  43.4680491  76.4826348  64.8923529  42.7710944  75.2087924  64.4640343
  37.9916098  78.5587424  71.7705446  37.8460679  78.8727727  72.6629727
  37.5141301  79.1772324  71.2176344  39.8512481  75.5489972  71.8186335
  39.8374049  74.6531065  71.4818633  40.5684909  75.5560636  72.4524621
  41.7038611  75.9827312  73.8639463  41.4456389  76.9044383  73.8623793
  41.1723652  75.5857747  74.5539927  46.6484800  89.0878099  66.6429548
  46.8221678  88.5224522  65.8903400  47.1413691  89.8878994  66.4609038
  32.4661760  81.0992768  74.7093107  31.9215228  81.8752576  74.8413381
  33.3441110  81.4463573  74.5512228  39.2549377  74.4304352  67.0873905
  39.3765288  73.5020998  67.2864793  38.9651419  74.4443038  66.1752221
  47.6359973  88.4044864  63.7426446  48.3310877  89.0251556  63.9613761
  47.9783123  87.5540215  64.0178824  33.2527782  80.2262664  77.6023264
  32.5109518  80.3745300  78.1887894  32.9320526  80.4870930  76.7390013
  49.5351396  85.8544569  65.2713777  50.0602720  86.1931842  64.5463097
  49.4473748  84.9191584  65.0876912  41.1971445  89.7678643  77.4003654
  41.5058571  89.5227789  78.2726353  41.9946927  89.9725281  76.9122524
  41.2192057  91.9216552  69.6309030  40.7797047  91.4292931  70.3241887
  41.9700174  91.3789520  69.3901105  33.6984396  88.1128093  69.6333658
  34.5242415  87.8131865  69.2532302  33.3478448  87.3435716  70.0823447
  38.6665929  87.4654561  71.7031332  38.0445938  86.8025266  71.4033560
  39.3370796  87.4915693  71.0204980  31.8993001  86.0314420  70.5922592
  31.0624909  85.6036594  70.4106593  31.8716646  86.2246863  71.5293383
  38.7390456  75.9436349  81.2963838  38.7878612  76.8198472  80.9141607
  39.2812970  75.4013743  80.7235481  49.2245302  86.4877473  80.5764975
  48.4340846  86.4701612  80.0369474  48.9878656  87.0265766  81.3314011
  49.3443177  83.3369939  77.8897703  49.3941182  83.1719947  78.8313226
  49.2357100  82.4697198  77.4995584  38.2279436  86.0158485  65.1789792
  38.3767556  86.6993949  64.5256465  39.0345879  85.9963575  65.6939248
  46.6346939  79.3200867  79.2057010  47.5356802  79.1807332  78.9141008
  46.7094914  79.4855322  80.1455188  40.9689745  76.6967722  78.0510196
  40.0993054  76.9901288  77.7792785  41.2049225  77.2808167  78.7717460
  50.8461374  85.7566881  78.1339725  50.5546182  86.1196861  78.9703186
  50.2333505  85.0433889  77.9553057  49.0948562  80.8799495  76.6019783
  49.5702684  81.0727142  75.7938634  48.1714127  80.9358681  76.3563167
  35.9832069  82.0423662  66.1850861  35.7378111  81.1385992  66.3831071
  36.1527983  82.0440813  65.2430339  43.6728778  72.9147339  75.5675617
  44.1910722  73.6508366  75.2422105  43.3183911  73.2211332  76.4022376
  41.7274841  88.5106615  62.6501540  41.1548808  89.1296802  62.1972012
  42.3007635  89.0605977  63.1841462  45.8164610  74.8420839  75.0207490
  45.2214543  75.1225851  74.3253978  45.5314307  75.3314739  75.7924231
  44.9472101  88.7943765  63.7810122  45.8802774  88.7289327  63.9842998
  44.8595314  89.6300032  63.3224655  47.5760118  88.1109636  60.7414070
  47.4973749  87.7769499  61.6349828  48.3969784  88.6031404  60.7405542
  50.2738309  80.9771375  73.9490388  50.2414629  80.0387376  74.1350072
  50.8838932  81.0555412  73.2156213  56.0914859  82.0387382  73.0896425
  56.8218247  81.7772670  73.6504128  55.4821804  81.3016104  73.1298493
  41.9960332  83.8985174  81.4518249  42.9163342  84.0763773  81.6458296
  41.9609915  82.9541219  81.2997949  31.2142497  79.0923768  70.3771524
  30.8945282  78.2389076  70.0845898  30.6675925  79.3072346  71.1329491
  34.9922405  81.8086209  74.0941030  35.2108415  82.7403317  74.1129064
  35.4048179  81.4494183  74.8795834  39.8650270  77.3819415  83.4843779
  39.7646997  78.3313771  83.4155870  39.6471812  77.0537653  82.6119849
  31.0830757  82.7126679  72.3464645  30.3894229  82.2980632  71.8334600
  31.8303748  82.7547216  71.7498064  39.7281540  80.8116553  82.3008841
  39.2448622  81.6116913  82.5072730  39.8142479  80.8224498  81.3476285
  32.9967500  82.6444933  70.2230660  32.9738188  82.7432620  69.2712543
  33.3068136  83.4910084  70.5447826  35.6554878  84.7021088  74.3377275
  36.6098131  84.6705030  74.2707206  35.4567401  84.2411712  75.1527501
  36.2454260  83.2722204  76.9048072  37.0647149  83.7666283  76.9282910
  36.5191067  82.3554172  76.8765640  46.0020856  75.6632956  66.2676028
  45.1146711  75.9482607  66.0496223  46.4174845  75.5026720  65.4203305
  34.0105106  90.2440708  71.3547473  33.8759574  89.4841108  70.7885471
  33.5937169  90.9681607  70.8876262  45.1464069  85.4277631  60.3624048
  45.8499920  85.6327634  60.9781704  44.4226718  85.9954393  60.6273131
  45.9761880  81.1787492  66.4826318  45.9197081  81.6356044  65.6433951
  46.5290222  80.4178177  66.3049161  37.1674232  91.1410025  71.5665915
  37.0506616  92.0855457  71.4644606  36.3466679  90.8383586  71.9551714
  47.0550767  85.8660160  62.4122508  47.8896371  85.4341359  62.2299983
  46.8935110  85.6942174  63.3399402  46.7096659  82.3692274  63.7778847
  46.6545463  82.2036545  62.8367291  46.0842714  83.0768307  63.9341037
  31.4989174  77.6060338  77.6040270  32.1448038  77.0959292  78.0927495
  31.2906325  78.3429020  78.1783695  44.0242566  84.6741185  83.1032410
  44.8933726  84.8481838  82.7419045  43.5449318  85.4935602  82.9808139
  38.1928746  91.7938286  74.7821844  39.0955993  91.8261897  75.0988339
  37.9666116  90.8638737  74.7968180  39.9482348  90.5469273  71.4431922
  38.9977979  90.5471135  71.3296295  40.2514835  89.8002008  70.9267957
  35.8386665  74.7527955  81.7015284  36.7018127  74.3964760  81.9118608
  35.2652076  74.4141850  82.3890688  55.6835042  96.3829811  72.5077685
  56.3213452  96.2636559  71.8041025  55.5655885  97.3310655  72.5665637
  52.4924748  96.3357240  72.4439209  52.1543260  96.2198304  71.5559744
  53.3614516  95.9348405  72.4240216  48.3511564  98.1892716  68.4336100
  47.7876429  98.0982653  67.6652388  48.2363959  97.3692620  68.9138593
  52.9744531  97.4892091  78.4025415  52.9633172  97.0944890  77.5305919
  53.1365171  96.7558164  78.9959186  45.8975996  99.6843908  71.2720321
  46.6897288  99.3434732  70.8566620  46.1372646  99.7938883  72.1922474
  53.9311123 101.8563684  63.7450565  53.2799102 102.4417764  63.3584579
  54.7255485 102.3869879  63.8045603  47.8566750  98.9452821  64.1437700
  48.6297626  98.3981808  64.0050575  48.2092149  99.8097070  64.3552161
  49.6951792 100.2729203  77.3504599  49.4041658 101.1774834  77.2351265
  50.3308777 100.3145731  78.0648669  50.6207999  97.6506052  73.9405959
  51.2171571  97.4262074  73.2262922  50.6782971  96.9090797  74.5431406
  50.1933028  95.1045487  61.7756150  50.4458548  94.5827008  61.0139613
  49.2557587  94.9411632  61.8782833  55.2376310  94.1081265  69.5830893
  56.0239400  93.6900688  69.2321310  55.5015015  95.0127357  69.7512541
  55.4086388  99.5454116  64.2819550  54.7732221  99.6188742  64.9940454
  55.0783794 100.1347714  63.6038629  60.6384738  94.0456498  70.4863871
  61.3709909  93.4755715  70.7201701  59.8824093  93.6578099  70.9270377
  49.9129316  97.0073593  63.9780525  49.7965574  96.3318496  64.6461609
  50.0231576  96.5205967  63.1612678  52.2560857  96.4683740  67.6827214
  51.8919064  95.9414361  68.3940135  53.1127973  96.0782209  67.5093699
  58.1610158  87.7578073  74.9458480  57.8293483  88.6273484  74.7219695
  57.5655771  87.4414357  75.6252510  51.8966344  91.4973640  62.6788562
  52.0640747  92.3653876  63.0459033  51.7063513  91.6600921  61.7549852
  54.6541677  99.9590619  74.3454393  54.3542400 100.8615657  74.2370200
  54.3092737  99.6922802  75.1975546  48.1054159  96.4104415  70.3791097
  47.1804655  96.2780630  70.5868789  48.3538572  97.1898635  70.8761039
  58.0538821  92.4773159  72.0251830  57.1455699  92.4088567  71.7310591
  58.0026417  92.9545104  72.8533655  51.8755565  93.9531297  63.6635229
  51.7555190  94.3988348  64.5020709  51.1808153  94.3016615  63.1048767
  45.4662970  96.0537689  71.2134886  45.5955351  96.3072168  72.1274298
  44.7860421  96.6465397  70.8939541  49.6362457 106.7234939  67.3125360
  49.5586487 107.6742764  67.3913841  49.0324101 106.3780811  67.9700287
  52.1279687  93.8962804  79.9686727  51.3513021  94.4556724  79.9589592
  52.7670250  94.3819587  80.4901597  59.9200468  90.6789597  73.8029704
  59.2774848  90.9722130  73.1569498  59.4155396  90.5642517  74.6082901
  57.5740631  94.4252770  64.4915563  58.4858487  94.6580157  64.3163261
  57.0650278  95.0089815  63.9290642  50.3826059  96.7048258  79.5304694
  51.1240744  97.2433302  79.2539518  49.6763045  97.3314546  79.6876246
  55.8581399  98.8477398  78.1276856  56.2664755  98.4059809  77.3831488
  55.1358660  98.2730026  78.3811049  52.2112469  93.7850005  75.5010413
  53.0573664  94.2089418  75.6445062  52.1511107  93.1283629  76.1948976
  56.1810214  99.4078589  71.8829145  55.5519076  99.5724303  71.1805212
  55.7935876  99.8220198  72.6540109  60.0599445 100.3433027  69.2373508
  59.3750484 100.7231928  68.6870542  60.1443295 100.9528353  69.9705456
  55.3611914  91.4454373  77.1591586  55.1172846  92.1996434  76.6225862
  55.6371845  91.8239721  77.9938833  57.3150377  97.9892986  75.8368852
  57.5267272  98.6324746  75.1603233  57.2680125  97.1555302  75.3690782
  54.9176606  90.6010806  72.7405424  54.0561085  90.8992060  73.0322162
  54.9439041  90.8181205  71.8086457  51.7338175  99.1452997  69.1479230
  52.1976521  99.4240700  68.3583852  51.4694974  98.2436441  68.9652320
  48.6262256  98.6924478  72.0858993  49.1963614  99.1211747  71.4476477
  49.2170368  98.4107063  72.7843179  50.6707061  95.2676149  65.9568795
  51.3731105  95.7197193  66.4242721  50.3387690  94.6259968  66.5848688
  49.1187423  93.8587906  80.3320004  48.4886084  94.5404187  80.5655401
  49.0123511  93.7470987  79.3873142  44.4132395  93.5259702  71.2585928
  43.6231449  93.7817230  70.7826039  44.9043643  94.3408040  71.3637969
  58.4296205 100.8664941  74.0091209  59.2513649 100.4645128  73.7273891
  58.4258608 100.7633175  74.9607325  46.3647141  93.8904281  68.2169405
  45.5678304  94.0022975  68.7352901  46.1372733  94.2290933  67.3510296
  52.1952808 100.4148984  76.1651920  52.2597241 100.8769392  77.0010092
  51.4863732  99.7846349  76.2934230  42.6970098  93.7790192  73.6900919
  42.9478137  94.6637202  73.9558495  43.2329647  93.5994794  72.9176011
  66.5202198  97.2103690  70.3576181  65.7665906  96.6411088  70.2020185
  66.6549739  97.1766354  71.3046815  51.9100826 102.0817092  66.0330900
  51.7746501 102.9268628  66.4615748  52.4510639 102.2836370  65.2696834
  48.3968166  88.1608672  82.6945255  48.0035111  87.6074870  83.3692900
  49.2134306  88.4719250  83.0851773  45.3630223  99.5992530  66.6058825
  45.8754744 100.3935780  66.7564390  46.0152936  98.9018820  66.5392427
  47.1725108 102.7158286  68.6881578  47.3491737 103.6376251  68.5002562
  47.9681942 102.4016705  69.1175958  51.3136127  89.5766551  80.2865512
  52.0545840  90.1773704  80.2069974  51.5454050  88.8344189  79.7283554
  46.4577465  94.7622918  78.5643742  46.3430980  93.8608175  78.8650840
  45.6021982  95.0086615  78.2128558  53.5369302 102.7040658  80.1631242
  53.0933157 101.9177037  79.8452147  54.1986516 102.8919809  79.4975133
  48.2956424 104.2336460  74.6891921  48.8463849 104.1053523  73.9168915
  47.4567900 104.5331349  74.3386813  55.6350541 102.9843458  78.1912643
  55.6169016 103.8052339  77.6992913  56.5570461 102.8597534  78.4162785
  52.0923595 100.4987588  79.0336152  52.6251931  99.7375876  78.8035460
  51.5637676 100.2061240  79.7760306  55.2593290  85.6047654  74.5629794
  54.9157559  86.4949295  74.4868904  55.6272252  85.4149311  73.6999379
  43.3279140  97.9281184  67.3818396  44.1654362  98.3378193  67.1652103
  43.5057408  96.9880626  67.3518590  55.2243572  95.5956265  63.0702229
  54.7090196  96.3660869  63.3090616  54.9520881  94.9221401  63.6935290
  52.8090683  90.4405966  68.1287467  51.9532280  90.0512816  67.9493106
  53.2217635  90.5197926  67.2687253  54.3389830  87.9752309  72.5279027
  53.8354626  87.9382444  71.7146832  54.6320437  88.8845052  72.5875683
  50.5832716  88.0591039  71.5345209  51.4485713  87.8633847  71.1751098
  50.6510225  87.8301390  72.4614565  60.1977847  98.3488620  65.0055402
  59.4207289  98.0099779  64.5610564  60.8769327  98.3541243  64.3310367
  55.0129876  93.4683357  64.8962010  54.7080011  93.7829506  65.7472153
  55.9660318  93.5464777  64.9389343  53.4576307  99.6273580  66.5454964
  52.9297669  98.8926340  66.2328201  52.9563810 100.4048257  66.2994932
  58.4369153  97.8222601  71.6622010  57.7792828  98.5121862  71.7502139
  59.2409553  98.2119033  72.0055996  48.1895035  90.2893247  68.9061575
  48.7638787  90.0668428  68.1734768  48.7766017  90.3581941  69.6590177
  57.2474612  96.1766973  69.7125952  57.7606494  96.8096965  70.2147662
  57.8975836  95.5768169  69.3469312  48.5164622  92.3197708  62.9257461
  47.6801934  92.6572394  63.2466735  48.3769392  92.1846687  61.9884598
  50.4917703  87.1634495  67.6336645  49.8382115  86.8483513  67.0093260
  50.4498177  86.5410236  68.3596468  51.6028908  97.4453791  59.5489937
  50.6955969  97.2143044  59.7481086  52.0999940  96.6491410  59.7363918
  54.5096986 106.1551298  62.4686623  53.8358685 106.4582994  63.0771581
  54.8962808 106.9580378  62.1192080  53.7255443  93.6516429  71.9584292
  52.8078004  93.8731376  71.8005980  54.1415587  93.7262739  71.0996000
  54.5090491  95.0507845  67.0886973  55.2562310  95.5629242  66.7794095
  54.7782080  94.7291897  67.9491366  52.7817141  97.5466385  64.0713927
  51.8728360  97.2625418  64.1686397  52.8112225  97.9665464  63.2117234
  58.0136408 101.1572975  67.8405094  57.5598736 100.3163885  67.8970285
  57.3830375 101.7934373  68.1779875  56.9569328  92.0864961  69.0705762
  56.2192085  91.5742347  69.4016004  57.2096102  91.6465343  68.2589039
  56.4569348 102.9949472  68.7754913  56.7492322 103.5554529  68.0567278
  56.9667968 103.2878033  69.5308072  43.3505311  95.2671900  68.0529129
  43.1529711  94.6741260  67.3280196  42.7951975  94.9624110  68.7705068
  51.3302035  95.1595006  70.1723722  51.3850645  94.2068842  70.0966199
  50.5193237  95.3154445  70.6565021  52.4793229  99.0875129  61.4102005
  52.0412659  98.3710988  60.9507643  53.2203670  99.3151244  60.8487097
  49.2694395  93.7772066  67.9314101  48.4562261  94.0766236  68.3379293
  49.7653389  93.3827755  68.6488583  51.4202973 103.7729823  69.8648366
  51.3779152 103.9990669  68.9356898  52.3365672 103.5393197  70.0134167
  54.8668607  94.2413890  76.7628995  55.2217994  94.4685363  77.6223461
  55.5140738  94.5732267  76.1406250  60.5966344  97.3632326  67.4678324
  60.4584242  97.5533922  66.5399513  60.2402562  98.1251709  67.9246375
  48.7608470  91.3490421  73.5475336  49.4007849  91.2079180  72.8498299
  47.9286000  91.0624935  73.1713938  60.6235723  99.4308853  72.4789596
  61.0572230  99.3384142  73.3272650  61.3367304  99.4066354  71.8409612
  49.5368774 100.6492852  69.6610329  50.3309372 100.1543172  69.4592904
  48.8260466 100.1210715  69.2978034  54.3563618 103.0310947  74.0122696
  54.4100640 103.6001884  74.7800412  53.4878399 103.2012832  73.6476733
  45.8451537  94.7935933  65.7370081  44.9149125  94.7320389  65.9540043
  45.9409009  94.2711886  64.9406722  45.7637086  91.3190746  68.3248323
  46.0243903  92.2336080  68.2157483  46.5854258  90.8515189  68.4744936
  47.2362011  92.7328503  75.4947147  47.9085065  92.5245866  74.8459796
  46.4091798  92.5350589  75.0552380  61.4851273  99.4732554  75.0122481
  61.6787163 100.3778364  75.2581756  61.3851891  99.0139973  75.8461066
  53.1387584  89.3590444  77.5112808  52.4915499  90.0580394  77.4177285
  53.9088599  89.7926588  77.8789056  56.5466381  99.6239297  80.5863362
  56.3951888  99.3949848  79.6693445  56.5371061 100.5809898  80.5994707
  53.3151718  97.1971209  75.5709628  54.2443778  97.3482369  75.3978595
  52.8942748  97.2855230  74.7158275  52.1140050 101.2221874  73.3408166
  51.9751135 100.8540658  74.2134104  51.3254646 101.7369513  73.1692123
  52.7088202 106.3230970  64.6833702  52.8839957 105.8519013  65.4979325
  52.0220990 106.9496736  64.9114963  53.6645265 100.6003476  70.7297003
  53.3295097 100.5604246  71.6254653  53.1649210  99.9348192  70.2567414
  47.6389509  96.0071106  76.2549585  47.5009307  95.2751345  76.8561124
  48.5494432  95.9180007  75.9733772  56.6004456  97.9459511  61.0034063
  55.9833627  97.2206339  60.9067116  56.1320945  98.7068871  60.6601137
  50.2671809  95.7191066  75.7433264  50.9771428  95.0784258  75.7019883
  50.2241118  95.9703961  76.6659445  58.2558588 102.6558419  78.6639843
  58.1971134 101.9717639  77.9970426  58.6578106 103.3977409  78.2120469
  48.9800743  92.7056284  77.5628904  48.4438100  92.2547022  78.2150500
  48.3917452  92.8402192  76.8199368  47.2749287 109.4720333  71.4573562
  47.5145885 110.1038857  72.1352581  46.4318483 109.1208373  71.7438922
  48.3903002  92.1644935  60.1255367  47.5132469  92.0433736  59.7617614
  48.8660755  91.3731013  59.8734256  58.2575995 100.6198003  76.8953823
  57.3702774 100.2823925  77.0180222  58.8274546  99.8881034  77.1322589
  39.9105142  96.9522095  70.2196874  40.5976182  96.6383825  69.6317890
  39.7553271  97.8563459  69.9464126  44.7139865  91.8412291  74.6481898
  44.6298053  91.2337961  73.9132308  43.8922571  92.3321310  74.6491395
  51.7877149 105.2799455  73.8615066  51.7147320 106.0854427  74.3734371
  51.3454542 105.4791421  73.0363088  51.5766928 104.5171225  67.3717888
  50.7934450 105.0592906  67.4656112  52.2759674 105.0345205  67.7712129
  54.8863578  90.3265855  70.0152093  55.3832278  89.5735817  69.6953163
  54.1150560  90.3630171  69.4495303  62.7393336  96.0306220  71.6570385
  62.7283212  96.9130936  71.2864318  61.8710715  95.6777771  71.4624922
  54.2475832 105.1786289  76.0173225  54.9603804 105.8133754  75.9449126
  53.7565861 105.2750155  75.2013227  55.9693359  99.0837542  67.5890517
  55.0349638  99.2039005  67.4195221  56.1470028  98.1810009  67.3250526
  51.4698547  92.4683238  69.7423778  51.0996335  91.9154278  70.4304683
  51.9657640  91.8641371  69.1898778  59.3565911  94.9254861  68.1240551
  59.8226363  95.7582853  68.0500853  59.8073411  94.4599843  68.8285809
  49.2987746 102.9280733  76.8378796  49.9997205 103.5617216  76.9908190
  48.8282861 103.2695464  76.0774435  57.4242142 101.2698683  65.1226703
  57.7001986 101.1555277  66.0320577  56.5546640 100.8716167  65.0838876
  57.3282573  87.2935448  72.1631452  56.4145653  87.5239675  72.3313659
  57.7575675  87.3773892  73.0145484  57.0989032  95.4825340  74.6631346
  56.4460482  95.7301248  74.0083799  57.4769412  94.6689478  74.3293823
  54.0596206 105.5185033  68.7659516  54.2418600 104.7006689  69.2287269
  54.8829192 105.7352726  68.3284406  54.3938371 104.4453219  66.0274565
  54.9226138 103.9345673  65.4144727  54.6566591 104.1295749  66.8920098
  53.1476605  96.2245151  81.1497383  52.4717242  96.1239281  81.8199758
  53.9704239  96.0684365  81.6133380  44.8955464 102.4617088  73.7709898
  45.4808901 101.7160776  73.9037803  44.6980302 102.7721045  74.6546562
  47.7494119 105.4968335  68.7872341  47.0804494 105.9814463  68.3036381
  47.6106989 105.7437556  69.7015719  39.4873119  95.0322688  72.4914342
  39.5257218  94.4986279  73.2851460  38.9813411  94.5057894  71.8725319
  51.8899388 107.5312079  75.3854999  52.4417696 107.6943700  76.1504084
  52.2305581 108.1216517  74.7135024  46.8663881  89.8787229  75.9876884
  46.9305207  90.7402060  75.5754282  46.8031001  89.2661230  75.2549242
  46.3416153  91.9510361  79.6349918  46.9688192  91.5687438  80.2487443
  45.4844072  91.7324563  80.0005611  56.7410262 102.3573336  81.2403654
  57.2850166 102.9703295  80.7458608  56.1597107 102.9152915  81.7570667
  43.1181696  93.7586790  65.5668273  43.4135137  92.8497469  65.5135327
  42.2169732  93.7374530  65.2449275  55.0267775 105.4794054  72.3718681
  54.9018914 104.6783794  71.8629627  55.6846866 105.9740248  71.8832651
  46.6475943  91.8342787  71.5495822  45.9262529  92.4478755  71.4103295
  47.4369199  92.3700552  71.4712468  57.0902683 103.2803074  73.9998231
  56.1433019 103.1608426  73.9276558  57.4385456 102.3925572  74.0824493
  49.4502257  89.1697213  77.8236473  49.9736659  89.4159510  78.5862783
  49.2314590  90.0017248  77.4039611  44.8469538  91.4400888  65.6907598
  44.5182244  90.5598267  65.5082704  45.2008908  91.3848557  66.5783987
  54.0949117 103.0755791  70.2002584  53.9474079 102.1472498  70.3810154
  54.9202610 103.0975881  69.7159659  47.9611361  91.7273858  66.0583076
  48.3007433  92.2559779  65.3361684  48.4083481  92.0654264  66.8341642
  57.6983238 103.8984349  71.2867456  58.6229786 103.6927211  71.1491908
  57.5298542 103.6500751  72.1956798  50.6554802  90.1110908  75.5086144
  50.3151622  89.3118722  75.9106824  49.9493808  90.4112619  74.9362977
  51.3071274  87.1960221  73.9613467  52.1297343  86.7220699  73.8392357
  51.5509337  87.9750705  74.4612153  49.9479508  90.2248479  64.2576369
  50.6687871  90.6029732  63.7540085  49.3244812  90.9437356  64.3611347
  54.0910631  90.9293628  65.1934701  54.3074245  91.8118266  64.8923529
  53.6104698  90.5379842  64.4640343  48.8309852  93.8879342  71.7705446
  48.6854433  94.2019645  72.6629727  48.3535056  94.5064242  71.2176344
  50.6906235  90.8781889  71.8186335  50.6767804  89.9822983  71.4818633
  51.4078663  90.8852553  72.4524621  52.5432366  91.3119230  73.8639463
  52.2850144  92.2336300  73.8623793  52.0117406  90.9149664  74.5539927
  57.4878555 104.4170017  66.6429548  57.6615432 103.8516439  65.8903400
  57.9807446 105.2170912  66.4609038  43.3055514  96.4284686  74.7093107
  42.7608983  97.2044494  74.8413381  44.1834864  96.7755490  74.5512228
  50.0943131  89.7596270  67.0873905  50.2159042  88.8312916  67.2864793
  49.8045174  89.7734956  66.1752221  52.9634322  87.4451180  70.2240625
  52.9856018  87.5090513  69.2692605  53.3802381  86.6055689  70.4181131
  63.3417946  97.1806440  68.2619848  63.7849092  96.4313765  67.8638971
  62.4644456  97.1716576  67.8793580  58.4753727 103.7336781  63.7426446
  59.1704632 104.3543474  63.9613761  58.8176877 102.8832132  64.0178824
  44.0921536  95.5554582  77.6023264  43.3503272  95.7037218  78.1887894
  43.7714281  95.8162848  76.7390013  60.3745150 101.1836487  65.2713777
  60.8996474 101.5223760  64.5463097  60.2867503 100.2483502  65.0876912
  52.0365199 105.0970560  77.4003654  52.3452325 104.8519707  78.2726353
  52.8340681 105.3017199  76.9122524  52.0585811 107.2508470  69.6309030
  51.6190801 106.7584849  70.3241887  52.8093928 106.7081438  69.3901105
  44.5378150 103.4420011  69.6333658  45.3636170 103.1423783  69.2532302
  44.1872202 102.6727633  70.0823447  49.5059683 102.7946479  71.7031332
  48.8839692 102.1317184  71.4033560  50.1764550 102.8207611  71.0204980
  42.7386755 101.3606337  70.5922592  41.9018663 100.9328512  70.4106593
  42.7110401 101.5538781  71.5293383  49.5784211  91.2728267  81.2963838
  49.6272366  92.1490390  80.9141607  50.1206725  90.7305660  80.7235481
  60.0639056 101.8169390  80.5764975  59.2734600 101.7993529  80.0369474
  59.8272411 102.3557684  81.3314011  60.1836931  98.6661857  77.8897703
  60.2334936  98.5011864  78.8313226  60.0750855  97.7989116  77.4995584
  49.0673190 101.3450402  65.1789792  49.2161310 102.0285867  64.5256465
  49.8739634 101.3255493  65.6939248  57.4740694  94.6492785  79.2057010
  58.3750557  94.5099250  78.9141008  57.5488668  94.8147240  80.1455188
  51.8083499  92.0259640  78.0510196  50.9386809  92.3193206  77.7792785
  52.0442979  92.6100085  78.7717460  61.6855128 101.0858798  78.1339725
  61.3939937 101.4488779  78.9703186  61.0727260 100.3725807  77.9553057
  62.8850811  98.6511678  70.6542295  63.7197702  99.0901482  70.8179856
  63.0209939  98.1750331  69.8350541  59.9342316  96.2091413  76.6019783
  60.4096438  96.4019059  75.7938634  59.0107882  96.2650599  76.3563167
  46.8225823  97.3715580  66.1850861  46.5771865  96.4677910  66.3831071
  46.9921738  97.3732731  65.2430339  54.5122533  88.2439256  75.5675617
  55.0304477  88.9800283  75.2422105  54.1577666  88.5503250  76.4022376
  46.0921471  93.1043938  63.6837023  45.3990716  93.1788293  63.0277059
  45.8473223  92.3404281  64.2058540  52.5668596 103.8398533  62.6501540
  51.9942563 104.4588720  62.1972012  53.1401389 104.3897895  63.1841462
  58.6343985  93.0857173  74.8348089  59.5861408  93.1855271  74.8560313
  58.4647436  92.2935442  75.3446173  56.6558365  90.1712756  75.0207490
  56.0608297  90.4517769  74.3253978  56.3708062  90.6606657  75.7924231
  55.7865855 104.1235683  63.7810122  56.7196529 104.0581245  63.9842998
  55.6989068 104.9591950  63.3224655  58.4153872 103.4401553  60.7414070
  58.3367504 103.1061417  61.6349828  59.2363539 103.9323321  60.7405542
  61.1132063  96.3063293  73.9490388  61.0808383  95.3679293  74.1350072
  61.7232687  96.3847329  73.2156213  52.9515394  95.1759346  59.9917592
  53.8974499  95.0465554  60.0606010  52.5729639  94.4374008  60.4687020
  61.2626552  93.0974336  73.9948671  60.7465600  92.3132793  73.8078600
  62.1466500  92.7693053  74.1595191  66.9308613  97.3679300  73.0896425
  67.6612002  97.1064588  73.6504128  66.3215559  96.6308021  73.1298493
  65.0123910  95.5087162  73.6870876  64.2857074  95.3743127  73.0787368
  64.5971197  95.8163991  74.4927594  52.8354087  99.2277092  81.4518249
  53.7557096  99.4055691  81.6458296  52.8003670  98.2833137  81.2997949
  51.1358311  93.1009322  59.9272478  50.2289767  92.8042435  60.0035191
  51.4134292  92.8039140  59.0606764  42.0536252  94.4215685  70.3771524
  41.7339036  93.5680994  70.0845898  41.5069680  94.6364264  71.1329491
  45.8316159  97.1378126  74.0941030  46.0502169  98.0695234  74.1129064
  46.2441933  96.7786101  74.8795834  52.7520377  87.6446212  66.0816719
  51.9421105  87.2993297  66.4571965  53.4404794  87.3353755  66.6704330
  50.7044025  92.7111332  83.4843779  50.6040751  93.6605689  83.4155870
  50.4865567  92.3829571  82.6119849  49.9057096  89.9596257  60.0684457
  50.7676260  90.2851156  60.3280274  50.0907440  89.1727753  59.5557522
  41.9224512  98.0418597  72.3464645  41.2287983  97.6272550  71.8334600
  42.6697503  98.0839133  71.7498064  56.5093299  88.2329841  69.4141000
  57.0093077  88.3446376  68.6055319  57.1528907  87.9290894  70.0541808
  50.5675295  96.1408471  82.3008841  50.0842376  96.9408831  82.5072730
  50.6536234  96.1516416  81.3476285  43.8361254  97.9736851  70.2230660
  43.8131942  98.0724538  69.2712543  44.1461891  98.8202002  70.5447826
  46.4948632 100.0313006  74.3377275  47.4491886  99.9996948  74.2707206
  46.2961156  99.5703629  75.1527501  47.0848014  98.6014122  76.9048072
  47.9040903  99.0958200  76.9282910  47.3584822  97.6846090  76.8765640
  56.8414610  90.9924874  66.2676028  55.9540465  91.2774525  66.0496223
  57.2568599  90.8318637  65.4203305  60.1929147  91.0171395  69.9830367
  60.9689537  91.5067848  70.2554984  59.4677281  91.4429449  70.4402237
  62.6301705  91.7299014  71.0404308  63.2246196  91.4894750  70.3297616
  62.7028289  91.0106145  71.6677844  44.8498861 105.5732625  71.3547473
  44.7153329 104.8133026  70.7885471  44.4330923 106.2973525  70.8876262
  55.9857824 100.7569549  60.3624048  56.6893674 100.9619551  60.9781704
  55.2620473 101.3246311  60.6273131  56.8155634  96.5079410  66.4826318
  56.7590836  96.9647961  65.6433951  57.3683977  95.7470095  66.3049161
  60.6260440  92.2969142  67.3076438  60.3697374  91.8965778  68.1384645
  60.0013308  93.0112936  67.1826577  64.9372778  95.0365215  69.8147729
  64.3772336  95.1058404  70.5879291  64.3316281  94.8606200  69.0947225
  48.0067987 106.4701942  71.5665915  47.8900371 107.4147375  71.4644606
  47.1860433 106.1675504  71.9551714  57.8944521 101.1952078  62.4122508
  58.7290125 100.7633276  62.2299983  57.7328864 101.0234092  63.3399402
  57.5490413  97.6984191  63.7778847  57.4939217  97.5328463  62.8367291
  56.9236469  98.4060224  63.9341037  42.3382928  92.9352256  77.6040270
  42.9841792  92.4251210  78.0927495  42.1300080  93.6720937  78.1783695
  54.8636321 100.0033103  83.1032410  55.7327480 100.1773755  82.7419045
  54.3843072 100.8227520  82.9808139  50.8586539  87.1992300  63.3564166
  50.8465209  88.1434140  63.5132437  51.7509961  87.0162446  63.0623627
  49.0322501 107.1230204  74.7821844  49.9349748 107.1553814  75.0988339
  48.8059871 106.1930655  74.7968180  50.7876103 105.8761191  71.4431922
  49.8371734 105.8763052  71.3296295  51.0908589 105.1293925  70.9267957
  46.6780419  90.0819873  81.7015284  47.5411881  89.7256678  81.9118608
  46.1045830  89.7433768  82.3890688  66.5228796 111.7121729  72.5077685
  67.1607206 111.5928476  71.8041025  66.4049639 112.6602573  72.5665637
  63.3318503 111.6649157  72.4439209  62.9937014 111.5490222  71.5559744
  64.2008271 111.2640322  72.4240216  59.1905318 113.5184634  68.4336100
  58.6270183 113.4274571  67.6652388  59.0757713 112.6984538  68.9138593
  63.8138286 112.8184009  78.4025415  63.8026926 112.4236807  77.5305919
  63.9758925 112.0850082  78.9959186  56.7369750 115.0135825  71.2720321
  57.5291042 114.6726650  70.8566620  56.9766400 115.1230800  72.1922474
  64.7704877 117.1855601  63.7450565  64.1192857 117.7709682  63.3584579
  65.5649240 117.7161796  63.8045603  58.6960504 114.2744738  64.1437700
  59.4691380 113.7273726  64.0050575  59.0485903 115.1388988  64.3552161
  60.5345547 115.6021121  77.3504599  60.2435413 116.5066752  77.2351265
  61.1702531 115.6437648  78.0648669  61.4601754 112.9797969  73.9405959
  62.0565326 112.7553992  73.2262922  61.5176725 112.2382715  74.5431406
  61.0326782 110.4337405  61.7756150  61.2852303 109.9118926  61.0139613
  60.0951341 110.2703550  61.8782833  66.0770065 109.4373183  69.5830893
  66.8633154 109.0192606  69.2321310  66.3408769 110.3419275  69.7512541
  66.2480142 114.8746033  64.2819550  65.6125975 114.9480660  64.9940454
  65.9177549 115.4639632  63.6038629  71.4778492 109.3748416  70.4863871
  72.2103664 108.8047633  70.7201701  70.7217848 108.9870017  70.9270377
  60.7523071 112.3365511  63.9780525  60.6359329 111.6610414  64.6461609
  60.8625331 111.8497884  63.1612678  63.0954612 111.7975658  67.6827214
  62.7312819 111.2706279  68.3940135  63.9521728 111.4074127  67.5093699
  69.0003912 103.0869990  74.9458480  68.6687237 103.9565401  74.7219695
  68.4049526 102.7706274  75.6252510  62.7360099 106.8265557  62.6788562
  62.9034501 107.6945794  63.0459033  62.5457268 106.9892839  61.7549852
  65.4935432 115.2882536  74.3454393  65.1936155 116.1907575  74.2370200
  65.1486491 115.0214719  75.1975546  58.9447913 111.7396333  70.3791097
  58.0198410 111.6072547  70.5868789  59.1932327 112.5190552  70.8761039
  68.8932576 107.8065076  72.0251830  67.9849453 107.7380485  71.7310591
  68.8420171 108.2837021  72.8533655  62.7149320 109.2823215  63.6635229
  62.5948945 109.7280266  64.5020709  62.0201908 109.6308533  63.1048767
  56.3056724 111.3829607  71.2134886  56.4349106 111.6364086  72.1274298
  55.6254176 111.9757315  70.8939541  62.9673441 109.2254722  79.9686727
  62.1906775 109.7848642  79.9589592  63.6064004 109.7111505  80.4901597
  70.7594222 106.0081515  73.8029704  70.1168602 106.3014048  73.1569498
  70.2549151 105.8934435  74.6082901  68.4134386 109.7544688  64.4915563
  69.3252242 109.9872075  64.3163261  67.9044033 110.3381732  63.9290642
  61.2219814 112.0340175  79.5304694  61.9634498 112.5725219  79.2539518
  60.5156799 112.6606464  79.6876246  66.6975153 114.1769316  78.1276856
  67.1058509 113.7351726  77.3831488  65.9752415 113.6021943  78.3811049
  63.0506223 109.1141923  75.5010413  63.8967419 109.5381336  75.6445062
  62.9904861 108.4575547  76.1948976  67.0203968 114.7370506  71.8829145
  66.3912830 114.9016221  71.1805212  66.6329630 115.1512116  72.6540109
  70.8993200 115.6724944  69.2373508  70.2144238 116.0523846  68.6870542
  70.9837049 116.2820271  69.9705456  66.2005669 106.7746291  77.1591586
  65.9566601 107.5288351  76.6225862  66.4765599 107.1531639  77.9938833
  68.1544132 113.3184903  75.8368852  68.3661027 113.9616663  75.1603233
  68.1073880 112.4847220  75.3690782  65.7570360 105.9302724  72.7405424
  64.8954840 106.2283978  73.0322162  65.7832795 106.1473123  71.8086457
  62.5731930 114.4744915  69.1479230  63.0370275 114.7532618  68.3583852
  62.3088728 113.5728359  68.9652320  59.4656011 114.0216396  72.0858993
  60.0357368 114.4503664  71.4476477  60.0564123 113.7398981  72.7843179
  61.5100816 110.5968067  65.9568795  62.2124859 111.0489111  66.4242721
  61.1781444 109.9551886  66.5848688  59.9581177 109.1879824  80.3320004
  59.3279838 109.8696104  80.5655401  59.8517265 109.0762905  79.3873142
  55.2526150 108.8551620  71.2585928  54.4625204 109.1109148  70.7826039
  55.7437397 109.6699957  71.3637969  69.2689959 116.1956859  74.0091209
  70.0907403 115.7937046  73.7273891  69.2652362 116.0925093  74.9607325
  57.2040895 109.2196199  68.2169405  56.4072059 109.3314893  68.7352901
  56.9766488 109.5582851  67.3510296  63.0346563 115.7440902  76.1651920
  63.0990995 116.2061309  77.0010092  62.3257487 115.1138267  76.2934230
  53.5363853 109.1082110  73.6900919  53.7871891 109.9929120  73.9558495
  54.0723401 108.9286712  72.9176011  77.3595953 112.5395607  70.3576181
  76.6059661 111.9703005  70.2020185  77.4943494 112.5058272  71.3046815
  62.7494581 117.4109010  66.0330900  62.6140255 118.2560545  66.4615748
  63.2904393 117.6128287  65.2696834  59.2361920 103.4900589  82.6945255
  58.8428866 102.9366788  83.3692900  60.0528061 103.8011168  83.0851773
  56.2023978 114.9284448  66.6058825  56.7148499 115.7227698  66.7564390
  56.8546691 114.2310738  66.5392427  58.0118863 118.0450204  68.6881578
  58.1885491 118.9668169  68.5002562  58.8075696 117.7308623  69.1175958
  62.1529881 104.9058468  80.2865512  62.8939595 105.5065622  80.2069974
  62.3847804 104.1636106  79.7283554  57.2971219 110.0914836  78.5643742
  57.1824734 109.1900093  78.8650840  56.4415737 110.3378533  78.2128558
  64.3763057 118.0332576  80.1631242  63.9326911 117.2468955  79.8452147
  65.0380271 118.2211727  79.4975133  66.4744295 118.3135376  78.1912643
  66.4562770 119.1344257  77.6992913  67.3964215 118.1889451  78.4162785
  62.9317349 115.8279505  79.0336152  63.4645686 115.0667794  78.8035460
  62.4031430 115.5353157  79.7760306  66.0987044 100.9339571  74.5629794
  65.7551314 101.8241213  74.4868904  66.4666007 100.7441229  73.6999379
  54.1672895 113.2573102  67.3818396  55.0048117 113.6670110  67.1652103
  54.3451162 112.3172544  67.3518590  66.0637327 110.9248183  63.0702229
  65.5483950 111.6952787  63.3090616  65.7914635 110.2513319  63.6935290
  63.6484438 105.7697883  68.1287467  62.7926034 105.3804734  67.9493106
  64.0611390 105.8489844  67.2687253  65.1783585 103.3044227  72.5279027
  64.6748380 103.2674362  71.7146832  65.4714191 104.2136969  72.5875683
  61.4226470 103.3882956  71.5345209  62.2879467 103.1925765  71.1751098
  61.4903979 103.1593308  72.4614565  71.0371601 113.6780537  65.0055402
  70.2601044 113.3391697  64.5610564  71.7163082 113.6833160  64.3310367
  65.8523630 108.7975275  64.8962010  65.5473766 109.1121424  65.7472153
  66.8054072 108.8756695  64.9389343  64.2970062 114.9565498  66.5454964
  63.7691423 114.2218258  66.2328201  63.7957565 115.7340174  66.2994932
  69.2762908 113.1514518  71.6622010  68.6186582 113.8413780  71.7502139
  70.0803307 113.5410950  72.0055996  59.0288789 105.6185164  68.9061575
  59.6032541 105.3960346  68.1734768  59.6159772 105.6873859  69.6590177
  68.0868367 111.5058891  69.7125952  68.6000248 112.1388883  70.2147662
  68.7369591 110.9060087  69.3469312  59.3558377 107.6489625  62.9257461
  58.5195689 107.9864312  63.2466735  59.2163146 107.5138605  61.9884598
  61.3311457 102.4926413  67.6336645  60.6775870 102.1775430  67.0093260
  61.2891931 101.8702154  68.3596468  62.4422662 112.7745708  59.5489937
  61.5349724 112.5434962  59.7481086  62.9393694 111.9783327  59.7363918
  64.5649198 108.9808347  71.9584292  63.6471759 109.2023294  71.8005980
  64.9809341 109.0554657  71.0996000  65.3484245 110.3799762  67.0886973
  66.0956064 110.8921160  66.7794095  65.6175835 110.0583815  67.9491366
  63.6210896 112.8758303  64.0713927  62.7122115 112.5917336  64.1686397
  63.6505979 113.2957382  63.2117234  68.8530163 116.4864893  67.8405094
  68.3992490 115.6455802  67.8970285  68.2224130 117.1226291  68.1779875
  67.7963082 107.4156879  69.0705762  67.0585839 106.9034265  69.4016004
  68.0489856 106.9757260  68.2589039  67.2963102 118.3241389  68.7754913
  67.5886077 118.8846446  68.0567278  67.8061723 118.6169950  69.5308072
  67.8974710 100.1933131  69.6647531  68.2033587  99.3330494  69.3773446
  68.6227315 100.7850751  69.4646525  54.1899066 110.5963817  68.0529129
  53.9923466 110.0033178  67.3280196  53.6345730 110.2916027  68.7705068
  62.1695790 110.4886924  70.1723722  62.2244399 109.5360760  70.0966199
  61.3586992 110.6446363  70.6565021  63.3186983 114.4167047  61.4102005
  62.8806413 113.7002906  60.9507643  64.0597424 114.6443162  60.8487097
  60.1088149 109.1063983  67.9314101  59.2956015 109.4058154  68.3379293
  60.6047144 108.7119672  68.6488583  62.2596727 119.1021740  69.8648366
  62.2172906 119.3282587  68.9356898  63.1759426 118.8685115  70.0134167
  65.7062361 109.5705808  76.7628995  66.0611749 109.7977281  77.6223461
  66.3534492 109.9024185  76.1406250  71.4360098 112.6924244  67.4678324
  71.2977997 112.8825840  66.5399513  71.0796317 113.4543627  67.9246375
  59.6002224 106.6782339  73.5475336  60.2401604 106.5371098  72.8498299
  58.7679755 106.3916852  73.1713938  71.4629478 114.7600771  72.4789596
  71.8965984 114.6676060  73.3272650  72.1761058 114.7358271  71.8409612
  60.3762528 115.9784769  69.6610329  61.1703127 115.4835090  69.4592904
  59.6654221 115.4502632  69.2978034  65.1957373 118.3602865  74.0122696
  65.2494395 118.9293801  74.7800412  64.3272154 118.5304750  73.6476733
  56.6845292 110.1227851  65.7370081  55.7542880 110.0612307  65.9540043
  56.7802764 109.6003804  64.9406722  56.6030841 106.6482664  68.3248323
  56.8637658 107.5627997  68.2157483  57.4248013 106.1807107  68.4744936
  58.0755766 108.0620421  75.4947147  58.7478819 107.8537783  74.8459796
  57.2485553 107.8642507  75.0552380  72.3245027 114.8024471  75.0122481
  72.5180917 115.7070282  75.2581756  72.2245645 114.3431891  75.8461066
  63.9781338 104.6882362  77.5112808  63.3309253 105.3872312  77.4177285
  64.7482353 105.1218506  77.8789056  67.3860136 114.9531214  80.5863362
  67.2345642 114.7241766  79.6693445  67.3764815 115.9101816  80.5994707
  64.1545472 112.5263127  75.5709628  65.0837532 112.6774287  75.3978595
  63.7336502 112.6147148  74.7158275  62.9533804 116.5513791  73.3408166
  62.8144890 116.1832576  74.2134104  62.1648400 117.0661431  73.1692123
  64.5039019 115.9295394  70.7297003  64.1688852 115.8896164  71.6254653
  64.0042965 115.2640110  70.2567414  58.4783263 111.3363024  76.2549585
  58.3403061 110.6043263  76.8561124  59.3888187 111.2471924  75.9733772
  67.4398211 113.2751428  61.0034063  66.8227382 112.5498257  60.9067116
  66.9714699 114.0360789  60.6601137  61.1065564 111.0482983  75.7433264
  61.8165182 110.4076176  75.7019883  61.0634872 111.2995878  76.6659445
  69.0952343 117.9850337  78.6639843  69.0364889 117.3009557  77.9970426
  69.4971861 118.7269327  78.2120469  59.8194498 108.0348201  77.5628904
  59.2831855 107.5838940  78.2150500  59.2311206 108.1694110  76.8199368
  59.2296757 107.4936853  60.1255367  58.3526223 107.3725653  59.7617614
  59.7054510 106.7022931  59.8734256  69.0969750 115.9489921  76.8953823
  68.2096529 115.6115842  77.0180222  69.6668301 115.2172952  77.1322589
  50.7498897 112.2814012  70.2196874  51.4369937 111.9675742  69.6317890
  50.5947026 113.1855377  69.9464126  55.5533619 107.1704209  74.6481898
  55.4691808 106.5629879  73.9132308  54.7316326 107.6613227  74.6491395
  62.4160683 119.8463143  67.3717888  61.6328205 120.3884823  67.4656112
  63.1153428 120.3637123  67.7712129  65.7257333 105.6557773  70.0152093
  66.2226033 104.9027735  69.6953163  64.9544314 105.6922089  69.4495303
  73.5787090 111.3598138  71.6570385  73.5676967 112.2422853  71.2864318
  72.7104470 111.0069689  71.4624922  65.0869587 120.5078207  76.0173225
  65.7997559 121.1425672  75.9449126  64.5959615 120.6042073  75.2013227
  66.8087114 114.4129460  67.5890517  65.8743392 114.5330922  67.4195221
  66.9863782 113.5101927  67.3250526  62.3092302 107.7975156  69.7423778
  61.9390089 107.2446196  70.4304683  62.8051394 107.1933289  69.1898778
  70.1959665 110.2546779  68.1240551  70.6620117 111.0874771  68.0500853
  70.6467166 109.7891761  68.8285809  60.1381500 118.2572651  76.8378796
  60.8390960 118.8909133  76.9908190  59.6676615 118.5987382  76.0774435
  68.2635896 116.5990600  65.1226703  68.5395740 116.4847195  66.0320577
  67.3940395 116.2008085  65.0838876  68.1676328 102.6227366  72.1631452
  67.2539408 102.8531593  72.3313659  68.5969429 102.7065810  73.0145484
  67.9382786 110.8117258  74.6631346  67.2854237 111.0593165  74.0083799
  68.3163166 109.9981396  74.3293823  64.8989960 120.8476951  68.7659516
  65.0812355 120.0298607  69.2287269  65.7222946 121.0644643  68.3284406
  65.2332126 119.7745136  66.0274565  65.7619892 119.2637591  65.4144727
  65.4960345 119.4587666  66.8920098  63.9870359 111.5537069  81.1497383
  63.3110996 111.4531198  81.8199758  64.8097993 111.3976283  81.6133380
  55.7349218 117.7909006  73.7709898  56.3202655 117.0452693  73.9037803
  55.5374057 118.1012962  74.6546562  50.3266873 110.3614606  72.4914342
  50.3650973 109.8278196  73.2851460  49.8207166 109.8349811  71.8725319
  57.7057635 105.2079146  75.9876884  57.7698962 106.0693977  75.5754282
  57.6424756 104.5953148  75.2549242  57.1809908 107.2802279  79.6349918
  57.8081947 106.8979356  80.2487443  56.3237827 107.0616481  80.0005611
  67.5804016 117.6865254  81.2403654  68.1243920 118.2995212  80.7458608
  66.9990861 118.2444832  81.7570667  53.9575451 109.0878708  65.5668273
  54.2528892 108.1789386  65.5135327  53.0563486 109.0666447  65.2449275
  65.8661529 120.8085972  72.3718681  65.7412669 120.0075712  71.8629627
  66.5240621 121.3032165  71.8832651  57.4869698 107.1634705  71.5495822
  56.7656283 107.7770672  71.4103295  58.2762953 107.6992469  71.4712468
  67.9296438 118.6094992  73.9998231  66.9826773 118.4900343  73.9276558
  68.2779211 117.7217490  74.0824493  60.2896011 104.4989131  77.8236473
  60.8130413 104.7451428  78.5862783  60.0708344 105.3309166  77.4039611
  55.6863292 106.7692806  65.6907598  55.3575998 105.8890185  65.5082704
  56.0402663 106.7140474  66.5783987  64.9342871 118.4047708  70.2002584
  64.7867834 117.4764416  70.3810154  65.7596365 118.4267799  69.7159659
  58.8005115 107.0565775  66.0583076  59.1401188 107.5851697  65.3361684
  59.2477236 107.3946182  66.8341642  68.5376993 119.2276267  71.2867456
  69.4623540 119.0219128  71.1491908  68.3692296 118.9792668  72.1956798
  61.4948556 105.4402826  75.5086144  61.1545377 104.6410639  75.9106824
  60.7887563 105.7404537  74.9362977  62.1465028 102.5252139  73.9613467
  62.9691097 102.0512617  73.8392357  62.3903092 103.3042622  74.4612153
  60.7873263 105.5540397  64.2576369  61.5081625 105.9321650  63.7540085
  60.1638567 106.2729274  64.3611347  64.9304385 106.2585546  65.1934701
  65.1468000 107.1410184  64.8923529  64.4498453 105.8671759  64.4640343
  59.6703607 109.2171259  71.7705446  59.5248188 109.5311562  72.6629727
  59.1928810 109.8356160  71.2176344  61.5299990 106.2073807  71.8186335
  61.5161558 105.3114900  71.4818633  62.2472418 106.2144471  72.4524621
  63.3826120 106.6411147  73.8639463  63.1243898 107.5628218  73.8623793
  62.8511161 106.2441582  74.5539927  68.3272309 119.7461934  66.6429548
  68.5009187 119.1808357  65.8903400  68.8201200 120.5462829  66.4609038
  54.1449269 111.7576604  74.7093107  53.6002737 112.5336412  74.8413381
  55.0228619 112.1047408  74.5512228  60.9336886 105.0888187  67.0873905
  61.0552797 104.1604834  67.2864793  60.6438928 105.1026873  66.1752221
  63.8028076 102.7743098  70.2240625  63.8249773 102.8382431  69.2692605
  64.2196135 101.9347607  70.4181131  74.1811700 112.5098357  68.2619848
  74.6242846 111.7605683  67.8638971  73.3038211 112.5008494  67.8793580
  69.3147482 119.0628699  63.7426446  70.0098386 119.6835392  63.9613761
  69.6570632 118.2124050  64.0178824  54.9315291 110.8846500  77.6023264
  54.1897027 111.0329135  78.1887894  54.6108035 111.1454765  76.7390013
  71.2138905 116.5128404  65.2713777  71.7390229 116.8515677  64.5463097
  71.1261257 115.5775420  65.0876912  62.8758953 120.4262478  77.4003654
  63.1846080 120.1811625  78.2726353  63.6734436 120.6309117  76.9122524
  60.3453438 118.1238397  71.7031332  59.7233447 117.4609102  71.4033560
  61.0158305 118.1499529  71.0204980  53.5780510 116.6898255  70.5922592
  52.7412418 116.2620429  70.4106593  53.5504155 116.8830698  71.5293383
  60.4177965 106.6020185  81.2963838  60.4666121 107.4782308  80.9141607
  60.9600479 106.0597578  80.7235481  70.9032811 117.1461308  80.5764975
  70.1128355 117.1285447  80.0369474  70.6666165 117.6849602  81.3314011
  71.0230686 113.9953774  77.8897703  71.0728691 113.8303782  78.8313226
  70.9144609 113.1281033  77.4995584  59.9066945 116.6742320  65.1789792
  60.0555065 117.3577785  64.5256465  60.7133388 116.6547410  65.6939248
  68.3134448 109.9784702  79.2057010  69.2144311 109.8391167  78.9141008
  68.3882423 110.1439157  80.1455188  62.6477254 107.3551557  78.0510196
  61.7780563 107.6485123  77.7792785  62.8836734 107.9392002  78.7717460
  72.5248883 116.4150716  78.1339725  72.2333691 116.7780697  78.9703186
  71.9121014 115.7017724  77.9553057  73.7244565 113.9803596  70.6542295
  74.5591456 114.4193400  70.8179856  73.8603694 113.5042249  69.8350541
  70.7736071 111.5383331  76.6019783  71.2490193 111.7310977  75.7938634
  69.8501636 111.5942516  76.3563167  57.6619578 112.7007498  66.1850861
  57.4165620 111.7969828  66.3831071  57.8315492 112.7024648  65.2430339
  65.3516287 103.5731174  75.5675617  65.8698231 104.3092201  75.2422105
  64.9971420 103.8795167  76.4022376  56.9315225 108.4335855  63.6837023
  56.2384470 108.5080210  63.0277059  56.6866977 107.6696199  64.2058540
  65.6028882  99.9931457  71.0876513  65.8830635  99.3254646  71.7136940
  66.3879489 100.1860552  70.5751177  63.4062350 119.1690451  62.6501540
  62.8336317 119.7880638  62.1972012  63.9795144 119.7189812  63.1841462
  69.4737740 108.4149091  74.8348089  70.4255163 108.5147188  74.8560313
  69.3041190 107.6227359  75.3446173  67.4952119 105.5004674  75.0207490
  66.9002052 105.7809687  74.3253978  67.2101816 105.9898575  75.7924231
  66.6259610 119.4527601  63.7810122  67.5590283 119.3873162  63.9842998
  66.5382823 120.2883868  63.3224655  69.2547627 118.7693471  60.7414070
  69.1761258 118.4353335  61.6349828  70.0757293 119.2615239  60.7405542
  71.9525818 111.6355210  73.9490388  71.9202138 110.6971211  74.1350072
  72.5626441 111.7139247  73.2156213  63.7909149 110.5051263  59.9917592
  64.7368253 110.3757471  60.0606010  63.4123394 109.7665925  60.4687020
  72.1020306 108.4266254  73.9948671  71.5859355 107.6424710  73.8078600
  72.9860255 108.0984970  74.1595191  69.7631033 102.1707269  69.9544484
  69.5655854 101.8622358  70.8387816  70.3730739 102.8968908  70.0842414
  77.7702368 112.6971217  73.0896425  78.5005756 112.4356505  73.6504128
  77.1609313 111.9599939  73.1298493  75.8517665 110.8379080  73.6870876
  75.1250828 110.7035045  73.0787368  75.4364952 111.1455908  74.4927594
  63.6747841 114.5569009  81.4518249  64.5950851 114.7347608  81.6458296
  63.6397424 113.6125055  81.2997949  61.9752066 108.4301240  59.9272478
  61.0683521 108.1334352  60.0035191  62.2528047 108.1331058  59.0606764
  52.8930006 109.7507603  70.3771524  52.5732791 108.8972911  70.0845898
  52.3463434 109.9656181  71.1329491  56.6709914 112.4670044  74.0941030
  56.8895923 113.3987152  74.1129064  57.0835688 112.1078019  74.8795834
  63.5914132 102.9738129  66.0816719  62.7814860 102.6285214  66.4571965
  64.2798548 102.6645673  66.6704330  65.5204680 102.0516176  67.7041015
  66.0735718 102.4711630  68.3631039  65.7574766 101.1251924  67.7463971
  61.5437779 108.0403250  83.4843779  61.4434506 108.9897607  83.4155870
  61.3259321 107.7121489  82.6119849  60.7450850 105.2888175  60.0684457
  61.6070014 105.6143073  60.3280274  60.9301195 104.5019671  59.5557522
  52.7618266 113.3710515  72.3464645  52.0681738 112.9564467  71.8334600
  53.5091257 113.4131051  71.7498064  68.8983487 104.1616701  67.2119680
  68.3182156 104.8201505  66.8297732  68.6319420 103.3394046  66.8007097
  67.3487053 103.5621759  69.4141000  67.8486832 103.6738294  68.6055319
  67.9922661 103.2582812  70.0541808  61.4069049 111.4700389  82.3008841
  60.9236131 112.2700749  82.5072730  61.4929988 111.4808334  81.3476285
  54.6755009 113.3028768  70.2230660  54.6525697 113.4016456  69.2712543
  54.9855645 114.1493919  70.5447826  57.3342387 115.3604923  74.3377275
  58.2885640 115.3288866  74.2707206  57.1354910 114.8995547  75.1527501
  57.9241769 113.9306039  76.9048072  58.7434658 114.4250118  76.9282910
  58.1978576 113.0138008  76.8765640  67.6808365 106.3216792  66.2676028
  66.7934220 106.6066442  66.0496223  68.0962354 106.1610555  65.4203305
  71.0322901 106.3463313  69.9830367  71.8083291 106.8359765  70.2554984
  70.3071035 106.7721367  70.4402237  73.4695460 107.0590932  71.0404308
  74.0639950 106.8186668  70.3297616  73.5422043 106.3398063  71.6677844
  66.8251578 116.0861466  60.3624048  67.5287428 116.2911469  60.9781704
  66.1014227 116.6538228  60.6273131  67.6549389 111.8371328  66.4826318
  67.5984590 112.2939879  65.6433951  68.2077731 111.0762012  66.3049161
  71.4654195 107.6261060  67.3076438  71.2091129 107.2257695  68.1384645
  70.8407063 108.3404854  67.1826577  75.7766532 110.3657133  69.8147729
  75.2166090 110.4350322  70.5879291  75.1710036 110.1898117  69.0947225
  68.7338276 116.5243996  62.4122508  69.5683880 116.0925194  62.2299983
  68.5722619 116.3526009  63.3399402  68.3884168 113.0276109  63.7778847
  68.3332972 112.8620380  62.8367291  67.7630223 113.7352142  63.9341037
  53.1776683 108.2644173  77.6040270  53.8235547 107.7543127  78.0927495
  52.9693834 109.0012855  78.1783695  65.7030075 115.3325021  83.1032410
  66.5721235 115.5065673  82.7419045  65.2236827 116.1519438  82.9808139
  61.6980293 102.5284218  63.3564166  61.6858963 103.4726058  63.5132437
  62.5903715 102.3454363  63.0623627  65.5132413  99.1226995  67.6110102
  64.7464809  98.5685481  67.7566785  65.9243118  99.1948863  68.4724254
  57.5174174 105.4111790  81.7015284  58.3805635 105.0548595  81.9118608
  56.9439585 105.0725685  82.3890688  76.9163819 124.7665101  69.5830893
  77.7026909 124.3484524  69.2321310  77.1802524 125.6711193  69.7512541
  79.8397667 118.4161908  74.9458480  79.5080992 119.2857319  74.7219695
  79.2443280 118.0998192  75.6252510  73.5753853 122.1557475  62.6788562
  73.7428256 123.0237711  63.0459033  73.3851022 122.3184757  61.7549852
  79.7326330 123.1356994  72.0251830  78.8243207 123.0672403  71.7310591
  79.6813926 123.6128939  72.8533655  81.5987977 121.3373432  73.8029704
  80.9562357 121.6305966  73.1569498  81.0942905 121.2226353  74.6082901
  73.8899978 124.4433840  75.5010413  74.7361173 124.8673254  75.6445062
  73.8298616 123.7867465  76.1948976  77.0399423 122.1038209  77.1591586
  76.7960355 122.8580269  76.6225862  77.3159354 122.4823556  77.9938833
  76.5964115 121.2594642  72.7405424  75.7348594 121.5575895  73.0322162
  76.6226550 121.4765041  71.8086457  70.0755675 118.8192507  82.6945255
  69.6822620 118.2658706  83.3692900  70.8921815 119.1303086  83.0851773
  72.9923636 120.2350386  80.2865512  73.7333349 120.8357539  80.2069974
  73.2241559 119.4928024  79.7283554  76.9380799 116.2631489  74.5629794
  76.5945068 117.1533131  74.4868904  77.3059761 116.0733147  73.6999379
  74.4878192 121.0989801  68.1287467  73.6319789 120.7096651  67.9493106
  74.9005144 121.1781762  67.2687253  76.0177339 118.6336144  72.5279027
  75.5142135 118.5966279  71.7146832  76.3107946 119.5428887  72.5875683
  72.2620225 118.7174874  71.5345209  73.1273222 118.5217683  71.1751098
  72.3297734 118.4885226  72.4614565  76.6917385 124.1267192  64.8962010
  76.3867520 124.4413341  65.7472153  77.6447827 124.2048612  64.9389343
  69.8682544 120.9477082  68.9061575  70.4426296 120.7252263  68.1734768
  70.4553526 121.0165776  69.6590177  70.1952131 122.9781543  62.9257461
  69.3589443 123.3156229  63.2466735  70.0556901 122.8430523  61.9884598
  72.1705212 117.8218331  67.6336645  71.5169624 117.5067348  67.0093260
  72.1285686 117.1994071  68.3596468  75.4042952 124.3100264  71.9584292
  74.4865513 124.5315211  71.8005980  75.8203096 124.3846575  71.0996000
  78.6356837 122.7448796  69.0705762  77.8979594 122.2326182  69.4016004
  78.8883611 122.3049178  68.2589039  78.7368464 115.5225048  69.6647531
  79.0427341 114.6622412  69.3773446  79.4621069 116.1142668  69.4646525
  76.5456116 124.8997726  76.7628995  76.9005503 125.1269199  77.6223461
  77.1928247 125.2316102  76.1406250  70.4395979 122.0074257  73.5475336
  71.0795358 121.8663016  72.8498299  69.6073509 121.7208770  73.1713938
  74.8175092 120.0174280  77.5112808  74.1703008 120.7164229  77.4177285
  75.5876108 120.4510424  77.8789056  70.6588252 123.3640119  77.5628904
  70.1225609 122.9130857  78.2150500  70.0704961 123.4986028  76.8199368
  70.0690511 122.8228770  60.1255367  69.1919978 122.7017571  59.7617614
  70.5448264 122.0314849  59.8734256  76.5651087 120.9849690  70.0152093
  77.0619787 120.2319653  69.6953163  75.7938069 121.0214007  69.4495303
  73.1486056 123.1267073  69.7423778  72.7783844 122.5738114  70.4304683
  73.6445149 122.5225207  69.1898778  79.0070082 117.9519284  72.1631452
  78.0933162 118.1823511  72.3313659  79.4363184 118.0357728  73.0145484
  68.5451390 120.5371064  75.9876884  68.6092716 121.3985895  75.5754282
  68.4818510 119.9245066  75.2549242  68.0203662 122.6094197  79.6349918
  68.6475701 122.2271274  80.2487443  67.1631581 122.3908398  80.0005611
  71.1289766 119.8281049  77.8236473  71.6524168 120.0743345  78.5862783
  70.9102099 120.6601083  77.4039611  66.5257047 122.0984723  65.6907598
  66.1969753 121.2182102  65.5082704  66.8796417 122.0432392  66.5783987
  69.6398870 122.3857693  66.0583076  69.9794942 122.9143614  65.3361684
  70.0870990 122.7238099  66.8341642  72.3342311 120.7694744  75.5086144
  71.9939131 119.9702557  75.9106824  71.6281317 121.0696455  74.9362977
  72.9858783 117.8544056  73.9613467  73.8084852 117.3804534  73.8392357
  73.2296846 118.6334540  74.4612153  71.6267017 120.8832315  64.2576369
  72.3475380 121.2613567  63.7540085  71.0032321 121.6021191  64.3611347
  75.7698140 121.5877464  65.1934701  75.9861754 122.4702102  64.8923529
  75.2892207 121.1963677  64.4640343  72.3693744 121.5365725  71.8186335
  72.3555313 120.6406818  71.4818633  73.0866172 121.5436389  72.4524621
  74.2219875 121.9703065  73.8639463  73.9637653 122.8920136  73.8623793
  73.6904915 121.5733500  74.5539927  71.7730640 120.4180105  67.0873905
  71.8946551 119.4896751  67.2864793  71.4832682 120.4318791  66.1752221
  74.6421831 118.1035016  70.2240625  74.6643527 118.1674349  69.2692605
  75.0589890 117.2639524  70.4181131  71.2571720 121.9312102  81.2963838
  71.3059875 122.8074225  80.9141607  71.7994234 121.3889496  80.7235481
  73.4871008 122.6843475  78.0510196  72.6174318 122.9777041  77.7792785
  73.7230488 123.2683920  78.7717460  76.1910042 118.9023092  75.5675617
  76.7091986 119.6384119  75.2422105  75.8365175 119.2087085  76.4022376
  76.4422636 115.3223374  71.0876513  76.7224390 114.6546563  71.7136940
  77.2273243 115.5152470  70.5751177  78.3345874 120.8296592  75.0207490
  77.7395806 121.1101604  74.3253978  78.0495571 121.3190492  75.7924231
  80.6024788 117.4999187  69.9544484  80.4049609 117.1914275  70.8387816
  81.2124493 118.2260826  70.0842414  72.8145820 123.7593157  59.9272478
  71.9077276 123.4626270  60.0035191  73.0921801 123.4622975  59.0606764
  74.4307886 118.3030047  66.0816719  73.6208614 117.9577132  66.4571965
  75.1192303 117.9937591  66.6704330  76.3598434 117.3808094  67.7041015
  76.9129473 117.8003547  68.3631039  76.5968521 116.4543842  67.7463971
  72.3831534 123.3695168  83.4843779  72.2828260 124.3189525  83.4155870
  72.1653076 123.0413406  82.6119849  71.5844605 120.6180093  60.0684457
  72.4463769 120.9434991  60.3280274  71.7694949 119.8311589  59.5557522
  79.7377241 119.4908619  67.2119680  79.1575910 120.1493423  66.8297732
  79.4713174 118.6685964  66.8007097  78.1880808 118.8913677  69.4141000
  78.6880586 119.0030211  68.6055319  78.8316416 118.5874730  70.0541808
  78.5202119 121.6508709  66.2676028  77.6327974 121.9358360  66.0496223
  78.9356108 121.4902473  65.4203305  81.8716656 121.6755230  69.9830367
  82.6477046 122.1651683  70.2554984  81.1464790 122.1013285  70.4402237
  72.5374048 117.8576136  63.3564166  72.5252718 118.8017976  63.5132437
  73.4297470 117.6746281  63.0623627  76.3526167 114.4518912  67.6110102
  75.5858563 113.8977399  67.7566785  76.7636872 114.5240781  68.4724254
  68.3567928 120.7403708  81.7015284  69.2199390 120.3840513  81.9118608
  67.7833339 120.4017603  82.3890688  12.3260025  12.0724263  59.2322991
  12.9638435  11.9531011  58.5286331  12.2080868  13.0205107  59.2910944
   9.1349731  12.0251691  59.1684516   8.7968243  11.9092756  58.2805051
  10.0039500  11.6242856  59.1485522   9.6169514  13.1786543  65.1270722
   9.6058155  12.7839341  64.2551225   9.7790154  12.4452616  65.7204493
  10.5736106  17.5458136  50.4695872   9.9224086  18.1312216  50.0829886
  11.3680469  18.0764330  50.5290909   4.4991733  14.6347273  50.8683006
   5.2722609  14.0876260  50.7295882   4.8517132  15.4991522  51.0797468
   6.3376776  15.9623655  64.0749906   6.0466642  16.8669286  63.9596572
   6.9733760  16.0040183  64.7893975   7.2632982  13.3400503  60.6651265
   7.8596555  13.1156526  59.9508228   7.3207954  12.5985249  61.2676713
  11.8801294   9.7975717  56.3076199  12.6664383   9.3795140  55.9566616
  12.1439998  10.7021809  56.4757848  12.0511371  15.2348567  51.0064856
  11.4157204  15.3083194  51.7185761  11.7208777  15.8242166  50.3283935
  17.2809721   9.7350950  57.2109178  18.0134893   9.1650167  57.4447007
  16.5249076   9.3472551  57.6515684   8.8985841  12.1578192  54.4072520
   8.5344048  11.6308813  55.1185442   9.7552956  11.7676661  54.2339006
  11.2966661  15.6485070  61.0699699  10.9967384  16.5510109  60.9615506
  10.9517720  15.3817254  61.9220852  14.6963804   8.1667611  58.7497137
  13.7880682   8.0983019  58.4555898  14.6451400   8.6439556  59.5778962
   6.2787440  22.4129391  54.0370667   6.2011470  23.3637216  54.1159148
   5.6749084  22.0675263  54.6945593  16.5625451   6.3684049  60.5275011
  15.9199831   6.6616582  59.8814805  16.0580379   6.2536969  61.3328207
  14.2165615  10.1147222  51.2160870  15.1283471  10.3474609  51.0408567
  13.7075262  10.6984266  50.6535948  12.5006382  14.5371850  64.8522162
  12.9089738  14.0954261  64.1076795  11.7783644  13.9624478  65.1056355
  12.8235197  15.0973041  58.6074451  12.1944059  15.2618755  57.9050519
  12.4360859  15.5114650  59.3785415  16.7024429  16.0327479  55.9618815
  16.0175467  16.4126380  55.4115848  16.7868278  16.6422805  56.6950763
  13.9575360  13.6787438  62.5614159  14.1692256  14.3219197  61.8848540
  13.9105109  12.8449754  62.0936089   8.3763159  14.8347449  55.8724536
   8.8401504  15.1135152  55.0829159   8.1119957  13.9330893  55.6897627
   5.2687240  14.3818930  58.8104300   5.8388597  14.8106199  58.1721784
   5.8595352  14.1001515  59.5088485  15.0721188  16.5559393  60.7336516
  15.8938632  16.1539580  60.4519197  15.0683591  16.4527627  61.6852632
   8.8377792  16.1043436  62.8897226   8.9022224  16.5663844  63.7255398
   8.1288716  15.4740801  63.0179536  23.1627181  12.8998141  57.0821487
  22.4090890  12.3305540  56.9265492  23.2974723  12.8660806  58.0292122
   8.5525809  17.7711544  52.7576207   8.4171484  18.6163079  53.1861055
   9.0935622  17.9730821  51.9942140   3.8150091  18.4052738  55.4126885
   3.9916720  19.3270703  55.2247869   4.6106925  18.0911157  55.8421265
  10.1794286  18.3935110  66.8876549   9.7358140  17.6071489  66.5697453
  10.8411499  18.5814261  66.2220440   4.9381407  19.9230912  61.4137227
   5.4888832  19.7947975  60.6414221   4.0992883  20.2225801  61.0632120
  12.2775524  18.6737910  64.9157950  12.2593999  19.4946791  64.4238219
  13.1995444  18.5491985  65.1408091   8.7348578  16.1882040  65.7581458
   9.2676915  15.4270328  65.5280766   8.2062659  15.8955691  66.5005613
  11.8668556  11.2850717  49.7947535  11.3515179  12.0555321  50.0335923
  11.5945864  10.6115853  50.4180597  16.8402830  14.0383071  51.7300709
  16.0632273  13.6994231  51.2855871  17.5194311  14.0435695  51.0555674
  10.1001291  15.3168032  53.2700270   9.5722652  14.5820792  52.9573508
   9.5988793  16.0942709  53.0240239  15.0794137  13.5117053  58.3867317
  14.4217811  14.2016314  58.4747445  15.8834536  13.9013485  58.7301303
  13.8899596  11.8661425  56.4371258  14.4031477  12.4991417  56.9392968
  14.5400819  11.2662621  56.0714618   8.2453891  13.1348242  46.2735243
   7.3380953  12.9037496  46.4726392   8.7424923  12.3385862  46.4609225
  11.1521970  21.8445750  49.1931930  10.4783669  22.1477446  49.8016887
  11.5387792  22.6474830  48.8437387  11.1515474  10.7402297  53.8132279
  11.8987293  11.2523694  53.5039401  11.4207064  10.4186349  54.6736673
   9.4242124  13.2360837  50.7959234   8.5153344  12.9519870  50.8931703
   9.4537208  13.6559916  49.9362540  14.6561392  16.8467427  54.5650401
  14.2023719  16.0058337  54.6215592  14.0255358  17.4828825  54.9025181
  13.0994331  18.6843923  55.5000219  13.3917305  19.2448981  54.7812585
  13.6092952  18.9772484  56.2553378   9.1218212  14.7769581  48.1347312
   8.6837642  14.0605440  47.6752949   9.8628653  15.0045696  47.5732404
   8.0627956  19.4624275  56.5893672   8.0204135  19.6885121  55.6602204
   8.9790655  19.2287649  56.7379474  11.5093590   9.9308342  63.4874302
  11.8642978  10.1579815  64.3468767  12.1565721  10.2626719  62.8651557
  17.2391327  13.0526778  54.1923631  17.1009225  13.2428374  53.2644820
  16.8827546  13.8146161  54.6491682  17.2660707  15.1203305  59.2034902
  17.6997213  15.0278594  60.0517956  17.9792287  15.0960805  58.5654918
   6.1793757  16.3387304  56.3855635   6.9734355  15.8437624  56.1838210
   5.4685449  15.8105167  56.0223341  10.9988601  18.7205399  60.7368003
  11.0525624  19.2896335  61.5045719  10.1303383  18.8907284  60.3722040
  18.1276256  15.1627006  61.7367788  18.3212146  16.0672816  61.9827063
  18.0276874  14.7034425  62.5706373  13.1891365  15.3133748  67.3108668
  13.0376871  15.0844300  66.3938752  13.1796044  16.2704350  67.3240013
   9.9576701  12.8865661  62.2954935  10.8868761  13.0376821  62.1223902
   9.5367731  12.9749682  61.4403581   8.7565033  16.9116326  60.0653472
   8.6176119  16.5435110  60.9379410   7.9679629  17.4263965  59.8937430
   9.3513185  22.0125422  51.4079009   9.5264941  21.5413465  52.2224631
   8.6645973  22.6391188  51.6360270  10.3070248  16.2897928  57.4542310
   9.9720081  16.2498698  58.3499960   9.8074194  15.6242644  56.9812720
  13.2429440  13.6353963  47.7279370  12.6258610  12.9100791  47.6312422
  12.7745928  14.3963323  47.3846444  14.8983571  18.3452871  65.3885150
  14.8396118  17.6612091  64.7215733  15.3003090  19.0871861  64.9365776
   3.9174270  25.1614785  58.1818869   4.1570868  25.7933309  58.8597888
   3.0743467  24.8102825  58.4684228  14.9000979  16.3092455  63.6199130
  14.0127757  15.9718377  63.7425529  15.4699530  15.5775486  63.8567895
   8.4302132  20.9693907  60.5860373   8.3572304  21.7748879  61.0979678
   7.9879525  21.1685873  59.7608394   8.2191912  20.2065677  54.0963194
   7.4359434  20.7487357  54.1901419   8.9184657  20.7239657  54.4957436
  19.3818319  11.7200672  58.3815691  19.3708195  12.6025388  58.0109624
  18.5135699  11.3672223  58.1870228  10.8900816  20.8680741  62.7418532
  11.6028788  21.5028206  62.6694433  10.3990844  20.9644607  61.9258533
  12.6118342  14.7731994  54.3135823  11.6774621  14.8933456  54.1440528
  12.7895011  13.8704461  54.0495833  15.9990894  10.6149313  54.8485857
  16.4651346  11.4477305  54.7746160  16.4498394  10.1494295  55.5531116
   5.9412729  18.6175185  63.5624102   6.6422189  19.2511668  63.7153497
   5.4707844  18.9589916  62.8019742  14.0667125  16.9593135  51.8472009
  14.3426969  16.8449729  52.7565884  13.1971624  16.5610619  51.8084183
  13.7414015  11.1719792  61.3876653  13.0885465  11.4195700  60.7329106
  14.1194395  10.3583930  61.0539130  10.7021189  21.2079485  55.4904823
  10.8843583  20.3901141  55.9532575  11.5254175  21.4247178  55.0529713
  11.0363354  20.1347670  52.7519872  11.5651121  19.6240125  52.1390034
  11.2991574  19.8190201  53.6165405   9.7901588  11.9139603  67.8742690
   9.1142225  11.8133733  68.5445065  10.6129222  11.7578817  68.3378687
   1.5380447  18.1511540  60.4955205   2.1233884  17.4055228  60.6283109
   1.3405286  18.4615496  61.3791869   4.3919102  21.1862787  55.5117647
   3.7229478  21.6708915  55.0281688   4.2531972  21.4332008  56.4261026
   8.5324371  23.2206531  62.1100306   9.0842679  23.3838152  62.8749391
   8.8730564  23.8110969  61.4380331  13.3835245  18.0467788  67.9648960
  13.9275149  18.6597746  67.4703915  12.8022090  18.6047367  68.4815973
  11.6692758  21.1688506  59.0963988  11.5443898  20.3678246  58.5874934
  12.3271849  21.6634700  58.6077958  13.7327667  18.9697526  60.7243538
  12.7858002  18.8502877  60.6521865  14.0810440  18.0820024  60.8069800
  10.7374100  18.7650243  56.9247890  10.5899062  17.8366950  57.1055460
  11.5627593  18.7870333  56.4404966  14.3408222  19.5878801  58.0112763
  15.2654769  19.3821663  57.8737214  14.1723525  19.3395202  58.9202105
  14.1303538  20.1064469  53.3674855  14.3040416  19.5410891  52.6148707
  14.6232429  20.9065364  53.1854344  19.9842929  12.8700892  54.9865154
  20.4274075  12.1208217  54.5884278  19.1069439  12.8611028  54.6038886
  15.1178710  19.4231233  50.4671753  15.8129615  20.0437926  50.6859067
  15.4601861  18.5726584  50.7424131  17.0170134  16.8730939  51.9959084
  17.5421458  17.2118211  51.2708404  16.9292486  15.9377954  51.8122218
   8.6790182  20.7865012  64.1248960   8.9877309  20.5414159  64.9971660
   9.4765664  20.9911651  63.6367830   8.7010794  22.9402922  56.3554337
   8.2615785  22.4479301  57.0487193   9.4518911  22.3975890  56.1146412
   1.1803133  19.1314463  56.3578965   2.0061153  18.8318235  55.9777608
   0.8297185  18.3622085  56.8068754   6.1484667  18.4840931  58.4276638
   5.5264676  17.8211636  58.1278866   6.8189533  18.5102063  57.7450286
  16.7064040  17.5063842  67.3010282  15.9159583  17.4887981  66.7614781
  16.4697394  18.0452136  68.0559318  16.8261915  14.3556309  64.6143010
  16.8759920  14.1906316  65.5558533  16.7175838  13.4883568  64.2240891
   5.7098173  17.0344854  51.9035099   5.8586294  17.7180319  51.2501772
   6.5164617  17.0149944  52.4184555  14.1165677  10.3387237  65.9302317
  15.0175540  10.1993702  65.6386315  14.1913652  10.5041692  66.8700494
  18.3280112  16.7753250  64.8585032  18.0364920  17.1383231  65.6948493
  17.7152243  16.0620258  64.6798364  19.5275794  14.3406130  57.3787602
  20.3622685  14.7795934  57.5425162  19.6634923  13.8644783  56.5595848
  16.5767300  11.8985865  63.3265090  17.0521421  12.0913511  62.5183941
  15.6532865  11.9545051  63.0808473   9.2093579  19.5292985  49.3746846
   8.6367546  20.1483172  48.9217318   9.7826373  20.0792346  49.9086768
  15.2768969   8.7751625  61.5593395  16.2286392   8.8749723  61.5805619
  15.1072419   7.9829893  62.0691480  12.4290839  19.8130135  50.5055429
  13.3621512  19.7475697  50.7088304  12.3414052  20.6486402  50.0469961
  15.0578855  19.1296005  47.4659376  14.9792487  18.7955869  48.3595134
  15.8788522  19.6217773  47.4650849  17.7557047  11.9957745  60.6735695
  17.7233367  11.0573745  60.8595379  18.3657670  12.0741781  59.9401520
  17.9051535   8.7868788  60.7193978  17.3890584   8.0027245  60.5323907
  18.7891484   8.4587505  60.8840498  23.5733596  13.0573751  59.8141732
  24.3036985  12.7959040  60.3749435  22.9640542  12.3202473  59.8543800
  21.6548894  11.1981614  60.4116183  20.9282057  11.0637579  59.8032674
  21.2396180  11.5058443  61.2172901   9.4779070  14.9171544  68.1763556
  10.3982079  15.0950143  68.3703602   9.4428653  13.9727589  68.0243255
  16.8354130   6.7065847  56.7075674  17.6114520   7.1962299  56.9800291
  16.1102264   7.1323901  57.1647543  19.2726688   7.4193466  57.7649614
  19.8671179   7.1789202  57.0542923  19.3453272   6.7000597  58.3923151
   1.4923844  21.2627077  58.0792779   1.3578312  20.5027478  57.5130777
   1.0755906  21.9867977  57.6121568  12.6282807  16.4464001  47.0869355
  13.3318657  16.6514003  47.7027010  11.9045456  17.0140763  47.3518438
  13.4580617  12.1973862  53.2071625  13.4015819  12.6542413  52.3679257
  14.0108960  11.4364547  53.0294468  17.2685423   7.9863594  54.0321744
  17.0122358   7.5860229  54.8629952  16.6438291   8.7007388  53.9071883
  21.5797761  10.7259667  56.5393036  21.0197319  10.7952856  57.3124598
  20.9741265  10.5500652  55.8192532   4.6492970  22.1596394  58.2911222
   4.5325354  23.1041827  58.1889912   3.8285416  21.8569956  58.6797021
  14.5369505  16.8846530  49.1367815  15.3715109  16.4527728  48.9545289
  14.3753847  16.7128544  50.0644709  14.1915397  13.3878643  50.5024154
  14.1364201  13.2222915  49.5612598  13.5661452  14.0954676  50.6586344
  11.5061304  15.6927555  69.8277717  12.3752464  15.8668207  69.4664352
  11.0268055  16.5121972  69.7053446   5.6747484  22.8124656  61.5067150
   6.5774731  22.8448266  61.8233645   5.4484854  21.8825107  61.5213486
   7.4301086  21.5655643  58.1677229   6.4796717  21.5657504  58.0541601
   7.7333572  20.8188377  57.6513264  23.1653780  27.4016181  59.2322991
  23.8032190  27.2822928  58.5286331  23.0474623  28.3497025  59.2910944
  19.9743486  27.3543609  59.1684516  19.6361997  27.2384674  58.2805051
  20.8433254  26.9534774  59.1485522  15.8330302  29.2079085  55.1581407
  15.2695167  29.1169022  54.3897695  15.7182697  28.3878990  55.6383900
  20.4563269  28.5078461  65.1270722  20.4451910  28.1131259  64.2551225
  20.6183908  27.7744533  65.7204493  13.3794734  30.7030277  57.9965627
  14.1716025  30.3621102  57.5811927  13.6191384  30.8125252  58.9167781
  21.4129860  32.8750053  50.4695872  20.7617840  33.4604134  50.0829886
  22.2074223  33.4056248  50.5290909  15.3385488  29.9639190  50.8683006
  16.1116364  29.4168177  50.7295882  15.6910886  30.8283440  51.0797468
  17.1770530  31.2915573  64.0749906  16.8860396  32.1961203  63.9596572
  17.8127514  31.3332100  64.7893975  18.1026737  28.6692421  60.6651265
  18.6990309  28.4448444  59.9508228  18.1601708  27.9277167  61.2676713
  17.6751765  26.1231856  48.5001456  17.9277286  25.6013378  47.7384919
  16.7376324  25.9598002  48.6028140  22.7195048  25.1267635  56.3076199
  23.5058137  24.7087058  55.9566616  22.9833752  26.0313727  56.4757848
  22.8905126  30.5640485  51.0064856  22.2550958  30.6375112  51.7185761
  22.5602532  31.1534084  50.3283935  28.1203475  25.0642868  57.2109178
  28.8528647  24.4942085  57.4447007  27.3642831  24.6764468  57.6515684
  17.3948054  28.0259962  50.7025831  17.2784312  27.3504866  51.3706915
  17.5050314  27.5392336  49.8857984  19.7379595  27.4870110  54.4072520
  19.3737802  26.9600730  55.1185442  20.5946711  27.0968579  54.2339006
  25.6428896  18.7764442  61.6703787  25.3112220  19.6459853  61.4465002
  25.0474509  18.4600726  62.3497817  19.3785082  22.5160009  49.4033869
  19.5459484  23.3840246  49.7704340  19.1882251  22.6787291  48.4795158
  22.1360415  30.9776988  61.0699699  21.8361138  31.8802027  60.9615506
  21.7911475  30.7109171  61.9220852  15.5872897  27.4290785  57.1036404
  14.6623393  27.2966999  57.3114095  15.8357310  28.2085004  57.6006346
  25.5357559  23.4959528  58.7497137  24.6274436  23.4274937  58.4555898
  25.4845155  23.9731473  59.5778962  19.3574303  24.9717667  50.3880536
  19.2373928  25.4174717  51.2266016  18.6626891  25.3202984  49.8294074
  12.9481708  27.0724059  57.9380193  13.0774089  27.3258537  58.8519604
  12.2679159  27.6651767  57.6184848  17.1181195  37.7421308  54.0370667
  17.0405225  38.6929134  54.1159148  16.5142839  37.3967181  54.6945593
  19.6098425  24.9149174  66.6932034  18.8331759  25.4743094  66.6834898
  20.2488988  25.4005957  67.2146904  27.4019205  21.6975967  60.5275011
  26.7593586  21.9908500  59.8814805  26.8974134  21.5828887  61.3328207
  25.0559369  25.4439140  51.2160870  25.9677225  25.6766527  51.0408567
  24.5469016  26.0276184  50.6535948  17.8644797  27.7234627  66.2550001
  18.6059481  28.2619671  65.9784824  17.1581783  28.3500916  66.4121553
  23.3400137  29.8663768  64.8522162  23.7483493  29.4246178  64.1076795
  22.6177398  29.2916395  65.1056355  19.6931207  24.8036374  62.2255719
  20.5392402  25.2275788  62.3690368  19.6329844  24.1469999  62.9194282
  23.6628951  30.4264958  58.6074451  23.0337814  30.5910672  57.9050519
  23.2754613  30.8406568  59.3785415  27.5418183  31.3619396  55.9618815
  26.8569221  31.7418298  55.4115848  27.6262033  31.9714723  56.6950763
  22.8430652  22.4640743  63.8836893  22.5991584  23.2182803  63.3471169
  23.1190583  22.8426090  64.7184140  24.7969115  29.0079355  62.5614159
  25.0086010  29.6511115  61.8848540  24.7498863  28.1741672  62.0936089
  22.3995344  21.6197176  59.4650731  21.5379823  21.9178429  59.7567468
  22.4257778  21.8367575  58.5331763  19.2156913  30.1639366  55.8724536
  19.6795259  30.4427069  55.0829159  18.9513711  29.2622811  55.6897627
  16.1080994  29.7110848  58.8104300  16.6782351  30.1398116  58.1721784
  16.6989106  29.4293433  59.5088485  18.1525799  26.2862519  52.6814101
  18.8549843  26.7383562  53.1488028  17.8206428  25.6446338  53.3093995
  16.6006161  24.8774275  67.0565311  15.9704821  25.5590556  67.2900708
  16.4942249  24.7657357  66.1118449  11.8951133  24.5446071  57.9831235
  11.1050187  24.8003600  57.5071346  12.3862381  25.3594409  58.0883276
  25.9114943  31.8851311  60.7336516  26.7332387  31.4831498  60.4519197
  25.9077346  31.7819545  61.6852632  13.8465879  24.9090651  54.9414712
  13.0497042  25.0209345  55.4598207  13.6191471  25.2477303  54.0755602
  19.6771546  31.4335354  62.8897226  19.7415979  31.8955761  63.7255398
  18.9682470  30.8032719  63.0179536  10.1788836  24.7976562  60.4146226
  10.4296875  25.6823572  60.6803802  10.7148385  24.6181163  59.6421318
  34.0020936  28.2290059  57.0821487  33.2484644  27.6597457  56.9265492
  34.1368477  28.1952724  58.0292122  19.3919564  33.1003461  52.7576207
  19.2565239  33.9454997  53.1861055  19.9329376  33.3022739  51.9942140
  15.8786904  19.1795041  69.4190562  15.4853849  18.6261240  70.0938206
  16.6953044  19.4905620  69.8097079  12.8448961  30.6178899  53.3304132
  13.3573482  31.4122150  53.4809696  13.4971674  29.9205190  53.2637733
  14.6543846  33.7344656  55.4126885  14.8310474  34.6562620  55.2247869
  15.4500679  33.4203075  55.8421265  18.7954865  20.5952920  67.0110818
  19.5364578  21.1960074  66.9315281  19.0272787  19.8530558  66.4528861
  13.9396203  25.7809288  65.2889048  13.8249718  24.8794545  65.5896147
  13.0840720  26.0272984  64.9373865  21.0188040  33.7227028  66.8876549
  20.5751894  32.9363407  66.5697453  21.6805254  33.9106178  66.2220440
  15.7775161  35.2522830  61.4137227  16.3282587  35.1239893  60.6414221
  14.9386637  35.5517719  61.0632120  23.1169278  34.0029828  64.9157950
  23.0987754  34.8238709  64.4238219  24.0389198  33.8783903  65.1408091
  19.5742332  31.5173957  65.7581458  20.1070669  30.7562246  65.5280766
  19.0456414  31.2247609  66.5005613  22.7412027  16.6234023  61.2875100
  22.3976297  17.5135665  61.2114211  23.1090990  16.4335681  60.4244685
  10.8097878  28.9467554  54.1063702  11.6473100  29.3564562  53.8897410
  10.9876146  28.0066996  54.0763896  22.7062310  26.6142634  49.7947535
  22.1908934  27.3847239  50.0335923  22.4339619  25.9407771  50.4180597
  20.2909421  21.4592335  54.8532774  19.4351018  21.0699186  54.6738412
  20.7036373  21.5384296  53.9932559  21.8208568  18.9938678  59.2524333
  21.3173363  18.9568814  58.4392139  22.1139175  19.9031421  59.3120990
  18.0651454  19.0777408  58.2590515  18.9304450  18.8820217  57.8996405
  18.1328963  18.8487760  59.1859872  27.6796584  29.3674989  51.7300709
  26.9026027  29.0286149  51.2855871  28.3588065  29.3727612  51.0555674
  22.4948613  24.4869727  51.6207316  22.1898749  24.8015876  52.4717460
  23.4479055  24.5651146  51.6634649  20.9395045  30.6459950  53.2700270
  20.4116407  29.9112709  52.9573508  20.4382548  31.4234626  53.0240239
  25.9187891  28.8408970  58.3867317  25.2611566  29.5308232  58.4747445
  26.7228290  29.2305402  58.7301303  15.6713773  21.3079616  55.6306882
  16.2457525  21.0854798  54.8980075  16.2584755  21.3768311  56.3835483
  24.7293350  27.1953343  56.4371258  25.2425232  27.8283335  56.9392968
  25.3794574  26.5954539  56.0714618  15.9983360  23.3384077  49.6502767
  15.1620672  23.6758764  49.9712042  15.8588130  23.2033057  48.7129904
  17.9736441  18.1820865  54.3581951  17.3200853  17.8669882  53.7338566
  17.9316915  17.5596605  55.0841774  19.0847645  28.4640160  46.2735243
  18.1774707  28.2329414  46.4726392  19.5818677  27.6677779  46.4609225
  21.9915724  37.1737667  49.1931930  21.3177423  37.4769364  49.8016887
  22.3781546  37.9766748  48.8437387  21.2074181  24.6702799  58.6829599
  20.2896742  24.8917746  58.5251287  21.6234324  24.7449109  57.8241306
  21.9909229  26.0694214  53.8132279  22.7381048  26.5815611  53.5039401
  22.2600818  25.7478267  54.6736673  20.2635879  28.5652755  50.7959234
  19.3547098  28.2811788  50.8931703  20.2930963  28.9851834  49.9362540
  25.4955146  32.1759344  54.5650401  25.0417473  31.3350254  54.6215592
  24.8649113  32.8120743  54.9025181  24.4388066  23.1051330  55.7951069
  23.7010823  22.5928717  56.1261311  24.6914839  22.6651712  54.9834345
  23.9388085  34.0135841  55.5000219  24.2311060  34.5740898  54.7812585
  24.4486706  34.3064402  56.2553378  24.5399693  15.8827582  56.3892838
  24.8458570  15.0224946  56.1018753  25.2652298  16.4745203  56.1891832
  10.8324049  26.2858269  54.7774436  10.6348449  25.6927630  54.0525502
  10.2770713  25.9810479  55.4950375  18.8120773  26.1781376  56.8969029
  18.8669383  25.2255212  56.8211505  18.0011975  26.3340815  57.3810327
  19.9611967  30.1061499  48.1347312  19.5231397  29.3897358  47.6752949
  20.7022407  30.3337613  47.5732404  16.7513133  24.7958435  54.6559408
  15.9380998  25.0952606  55.0624600  17.2472127  24.4014124  55.3733890
  18.9021711  34.7916192  56.5893672  18.8597889  35.0177039  55.6602204
  19.8184410  34.5579567  56.7379474  22.3487344  25.2600260  63.4874302
  22.7036732  25.4871733  64.3468767  22.9959476  25.5918637  62.8651557
  28.0785081  28.3818696  54.1923631  27.9402980  28.5720292  53.2644820
  27.7221300  29.1438078  54.6491682  16.2427208  22.3676791  60.2720643
  16.8826587  22.2265550  59.5743606  15.4104738  22.0811304  59.8959245
  28.1054461  30.4495223  59.2034902  28.5390968  30.3570512  60.0517956
  28.8186042  30.4252723  58.5654918  17.0187511  31.6679221  56.3855635
  17.8128110  31.1729541  56.1838210  16.3079204  31.1397084  56.0223341
  21.8382356  34.0497317  60.7368003  21.8919378  34.6188253  61.5045719
  20.9697137  34.2199202  60.3722040  13.3270275  25.8122303  52.4615388
  12.3967863  25.7506758  52.6785350  13.4227747  25.2898256  51.6652029
  13.2455824  22.3377116  55.0493630  13.5062641  23.2522449  54.9402790
  14.0672996  21.8701558  55.1990242  14.7180749  23.7514873  62.2192454
  15.3903803  23.5432235  61.5705103  13.8910536  23.5536959  61.7797686
  28.9670011  30.4918923  61.7367788  29.1605901  31.3964734  61.9827063
  28.8670629  30.0326342  62.5706373  20.6206321  20.3776814  64.2358115
  19.9734236  21.0766764  64.1422591  21.3907337  20.8112958  64.6034363
  24.0285119  30.6425666  67.3108668  23.8770626  30.4136218  66.3938752
  24.0189799  31.5996267  67.3240013  20.7970456  28.2157579  62.2954935
  21.7262516  28.3668738  62.1223902  20.3761486  28.3041600  61.4403581
  19.5958787  32.2408243  60.0653472  19.4569873  31.8727028  60.9379410
  18.8073384  32.7555883  59.8937430  20.1906939  37.3417340  51.4079009
  20.3658695  36.8705383  52.2224631  19.5039727  37.9683106  51.6360270
  21.1464003  31.6189846  57.4542310  20.8113835  31.5790616  58.3499960
  20.6467948  30.9534562  56.9812720  15.1208247  27.0257476  62.9794891
  14.9828044  26.2937715  63.5806430  16.0313170  26.9366376  62.6979079
  24.0823194  28.9645880  47.7279370  23.4652365  28.2392708  47.6312422
  23.6139683  29.7255241  47.3846444  17.7490547  26.7377435  62.4678571
  18.4590166  26.0970627  62.4265189  17.7059855  26.9890330  63.3904752
  25.7377326  33.6744789  65.3885150  25.6789872  32.9904009  64.7215733
  26.1396844  34.4163779  64.9365776  16.4619481  23.7242653  64.2874210
  15.9256838  23.2733392  64.9395807  15.8736190  23.8588562  63.5444675
  14.7568025  40.4906702  58.1818869  14.9964623  41.1225227  58.8597888
  13.9137221  40.1394742  58.4684228  15.8721740  23.1831305  46.8500674
  14.9951206  23.0620105  46.4862921  16.3479493  22.3917383  46.5979563
  25.7394733  31.6384373  63.6199130  24.8521512  31.3010294  63.7425529
  26.3093284  30.9067404  63.8567895   7.3923880  27.9708464  56.9442181
   8.0794920  27.6570194  56.3563196   7.2372009  28.8749829  56.6709433
  12.1958602  22.8598661  61.3727205  12.1116791  22.2524330  60.6377615
  11.3741309  23.3507679  61.3736701  19.2695887  36.2985825  60.5860373
  19.1966058  37.1040796  61.0979678  18.8273280  36.4977791  59.7608394
  19.0585666  35.5357595  54.0963194  18.2753188  36.0779275  54.1901419
  19.7578411  36.0531575  54.4957436  22.3682316  21.3452224  56.7397400
  22.8651016  20.5922187  56.4198470  21.5969298  21.3816541  56.1740609
  30.2212074  27.0492590  58.3815691  30.2101950  27.9317305  58.0109624
  29.3529453  26.6964141  58.1870228  21.7294570  36.1972659  62.7418532
  22.4422542  36.8320124  62.6694433  21.2384599  36.2936525  61.9258533
  23.4512097  30.1023912  54.3135823  22.5168376  30.2225374  54.1440528
  23.6288765  29.1996378  54.0495833  18.9517285  23.4869607  56.4669084
  18.5815073  22.9340648  57.1549990  19.4476377  22.8827741  55.9144085
  26.8384648  25.9441231  54.8485857  27.3045101  26.7769222  54.7746160
  27.2892149  25.4786212  55.5531116  16.7806484  33.9467102  63.5624102
  17.4815943  34.5803585  63.7153497  16.3101599  34.2881834  62.8019742
  24.9060879  32.2885052  51.8472009  25.1820723  32.1741647  52.7565884
  24.0365378  31.8902537  51.8084183  24.8101311  18.3121818  58.8876759
  23.8964391  18.5426045  59.0558966  25.2394413  18.3960262  59.7390791
  24.5807770  26.5011710  61.3876653  23.9279220  26.7487617  60.7329106
  24.9588149  25.6875848  61.0539130  21.5414943  36.5371403  55.4904823
  21.7237338  35.7193059  55.9532575  22.3647929  36.7539095  55.0529713
  21.8757109  35.4639588  52.7519872  22.4044875  34.9532043  52.1390034
  22.1385329  35.1482118  53.6165405  20.6295343  27.2431521  67.8742690
  19.9535980  27.1425650  68.5445065  21.4522976  27.0870735  68.3378687
  12.3774202  33.4803457  60.4955205  12.9627638  32.7347145  60.6283109
  12.1799040  33.7907414  61.3791869  15.2312857  36.5154705  55.5117647
  14.5623232  37.0000832  55.0281688  15.0925727  36.7623925  56.4261026
   6.9691856  26.0509058  59.2159648   7.0075956  25.5172648  60.0096766
   6.4632149  25.5244263  58.5970625  19.3718125  38.5498448  62.1100306
  19.9236433  38.7130070  62.8749391  19.7124319  39.1402886  61.4380331
  14.3482619  20.8973598  62.7122191  14.4123945  21.7588429  62.2999588
  14.2849739  20.2847600  61.9794549  13.8234891  22.9696731  66.3595225
  14.4506930  22.5873808  66.9732749  12.9662810  22.7510933  66.7250917
  24.2229000  33.3759706  67.9648960  24.7668904  33.9889664  67.4703915
  23.6415845  33.9339284  68.4815973  10.6000434  24.7773160  52.2913580
  10.8953875  23.8683838  52.2380633   9.6988470  24.7560899  51.9694582
  22.5086513  36.4980424  59.0963988  22.3837652  35.6970164  58.5874934
  23.1665604  36.9926617  58.6077958  14.1294681  22.8529156  58.2741128
  13.4081267  23.4665124  58.1348602  14.9187937  23.3886921  58.1957774
  24.5721421  34.2989444  60.7243538  23.6251757  34.1794795  60.6521865
  24.9204194  33.4111942  60.8069800  16.9320995  20.1883583  64.5481780
  17.4555396  20.4345879  65.3108089  16.7133328  21.0203618  64.1284917
  12.3288276  22.4587257  52.4152905  12.0000982  21.5784636  52.2328011
  12.6827646  22.4034926  53.3029294  21.5767854  34.0942160  56.9247890
  21.4292817  33.1658868  57.1055460  22.4021348  34.1162251  56.4404966
  15.4430099  22.7460227  52.7828382  15.7826171  23.2746149  52.0606991
  15.8902219  23.0840633  53.5586949  25.1801976  34.9170719  58.0112763
  26.1048524  34.7113580  57.8737214  25.0117280  34.6687120  58.9202105
  18.1373540  21.1297278  62.2331451  17.7970360  20.3305091  62.6352130
  17.4312546  21.4298989  61.6608284  18.7890011  18.2146590  60.6858774
  19.6116081  17.7407069  60.5637664  19.0328075  18.9937074  61.1857460
  17.4298246  21.2434849  50.9821675  18.1506608  21.6216102  50.4785392
  16.8063550  21.9623726  51.0856653  21.5729369  21.9479998  51.9180008
  21.7892983  22.8304636  51.6168836  21.0923436  21.5566211  51.1885650
  16.3128590  24.9065711  58.4950752  16.1673171  25.2206014  59.3875034
  15.8353794  25.5250611  57.9421651  18.1724973  21.8968259  58.5431642
  18.1586542  21.0009352  58.2063940  18.8897401  21.9038923  59.1769928
  20.0251104  22.3305599  60.5884769  19.7668882  23.2522670  60.5869100
  19.4936144  21.9336034  61.2785233  24.9697292  35.4356386  53.3674855
  25.1434170  34.8702809  52.6148707  25.4626184  36.2357281  53.1854344
  10.7874252  27.4471055  61.4338413  10.2427720  28.2230863  61.5658688
  11.6653602  27.7941860  61.2757535  17.5761869  20.7782639  53.8119212
  17.6977780  19.8499286  54.0110099  17.2863911  20.7921325  52.8997527
  20.4453059  18.4637550  56.9485932  20.4674756  18.5276883  55.9937911
  20.8621118  17.6242058  57.1426438  30.8236684  28.1992809  54.9865154
  31.2667830  27.4500135  54.5884278  29.9463194  28.1902946  54.6038886
  25.9572465  34.7523151  50.4671753  26.6523370  35.3729843  50.6859067
  26.2995615  33.9018502  50.7424131  11.5740274  26.5740952  64.3268570
  10.8322010  26.7223587  64.9133201  11.2533018  26.8349217  63.4635320
  27.8563888  32.2022856  51.9959084  28.3815212  32.5410129  51.2708404
  27.7686241  31.2669872  51.8122218  19.5183937  36.1156930  64.1248960
  19.8271063  35.8706077  64.9971660  20.3159419  36.3203568  63.6367830
  19.5404549  38.2694840  56.3554337  19.1009539  37.7771218  57.0487193
  20.2912666  37.7267807  56.1146412  12.0196888  34.4606380  56.3578965
  12.8454908  34.1610152  55.9777608  11.6690940  33.6914003  56.8068754
  16.9878421  33.8132849  58.4276638  16.3658430  33.1503554  58.1278866
  17.6583288  33.8393981  57.7450286  10.2205493  32.3792707  57.3167898
   9.3837401  31.9514881  57.1351900  10.1929138  32.5725150  58.2538690
  17.0602948  22.2914637  68.0209144  17.1091104  23.1676760  67.6386914
  17.6025463  21.7492030  67.4480788  27.5457794  32.8355760  67.3010282
  26.7553338  32.8179899  66.7614781  27.3091149  33.3744054  68.0559318
  27.6655669  29.6848226  64.6143010  27.7153674  29.5198234  65.5558533
  27.5569593  28.8175485  64.2240891  16.5491928  32.3636772  51.9035099
  16.6980048  33.0472236  51.2501772  17.3558371  32.3441862  52.4184555
  24.9559432  25.6679154  65.9302317  25.8569294  25.5285619  65.6386315
  25.0307406  25.8333609  66.8700494  19.2902237  23.0446009  64.7755503
  18.4205546  23.3379575  64.5038092  19.5261717  23.6286454  65.4962767
  29.1673866  32.1045168  64.8585032  28.8758674  32.4675148  65.6948493
  28.5545997  31.3912176  64.6798364  30.3669548  29.6698048  57.3787602
  31.2016440  30.1087852  57.5425162  30.5028677  29.1936701  56.5595848
  27.4161054  27.2277782  63.3265090  27.8915176  27.4205429  62.5183941
  26.4926620  27.2836968  63.0808473  14.3044561  28.3901950  52.9096168
  14.0590603  27.4864280  53.1076378  14.4740475  28.3919100  51.9675646
  21.9941271  19.2625626  62.2920924  22.5123215  19.9986653  61.9667412
  21.6396404  19.5689619  63.1267683  13.5740208  24.1230307  50.4082329
  12.8809453  24.1974662  49.7522365  13.3291960  23.3590651  50.9303846
  22.2453865  15.6825909  57.8121820  22.5255619  15.0149098  58.4382247
  23.0304472  15.8755004  57.2996484  20.0487333  34.8584902  49.3746846
  19.4761301  35.4775090  48.9217318  20.6220127  35.4084264  49.9086768
  26.1162723  24.1043543  61.5593395  27.0680146  24.2041640  61.5805619
  25.9466174  23.3121811  62.0691480  24.1377103  21.1899126  61.7452796
  23.5427035  21.4704138  61.0499285  23.8526799  21.6793027  62.5169537
  23.2684593  35.1422053  50.5055429  24.2015266  35.0767614  50.7088304
  23.1807806  35.9778319  50.0469961  25.8972610  34.4587923  47.4659376
  25.8186241  34.1247787  48.3595134  26.7182277  34.9509691  47.4650849
  28.5950801  27.3249662  60.6735695  28.5627121  26.3865663  60.8595379
  29.2051425  27.4033699  59.9401520  20.4334132  26.1945715  46.7162899
  21.3793237  26.0651923  46.7851317  20.0548377  25.4560377  47.1932327
  28.7445290  24.1160706  60.7193978  28.2284338  23.3319162  60.5323907
  29.6285238  23.7879422  60.8840498  26.4056016  17.8601721  56.6789791
  26.2080838  17.5516809  57.5633123  27.0155722  18.5863360  56.8087721
  34.4127351  28.3865669  59.8141732  35.1430739  28.1250957  60.3749435
  33.8034296  27.6494391  59.8543800  32.4942648  26.5273532  60.4116183
  31.7675812  26.3929497  59.8032674  32.0789935  26.8350360  61.2172901
  20.3172824  30.2463461  68.1763556  21.2375834  30.4242060  68.3703602
  20.2822407  29.3019507  68.0243255  18.6177049  24.1195692  46.6517784
  17.7108504  23.8228804  46.7280498  18.8953030  23.8225510  45.7852070
   9.5354989  25.4402055  57.1016831   9.2157774  24.5867363  56.8091205
   8.9888418  25.6550633  57.8574798  13.3134897  28.1564496  60.8186337
  13.5320907  29.0881604  60.8374371  13.7260671  27.7972470  61.6041141
  20.2339115  18.6632581  52.8062025  19.4239843  18.3179666  53.1817272
  20.9223532  18.3540125  53.3949637  22.1629663  17.7410628  54.4286322
  22.7160702  18.1606082  55.0876345  22.3999749  16.8146376  54.4709278
  18.1862762  23.7297702  70.2089086  18.0859489  24.6792059  70.1401177
  17.9684304  23.4015941  69.3365156  17.3875834  20.9782627  46.7929763
  18.2494998  21.3037525  47.0525581  17.5726178  20.1914123  46.2802829
   9.4043249  29.0604967  59.0709952   8.7106721  28.6458919  58.5579907
  10.1516240  29.1025503  58.4743371  25.5408470  19.8511153  53.9364986
  24.9607139  20.5095957  53.5543039  25.2744403  19.0288498  53.5252404
  23.9912037  19.2516211  56.1386307  24.4911815  19.3632746  55.3300626
  24.6347644  18.9477264  56.7787115  18.0494032  27.1594841  69.0254148
  17.5661114  27.9595201  69.2318037  18.1354971  27.1702785  68.0721592
  11.3179992  28.9923220  56.9475967  11.2950680  29.0910908  55.9957850
  11.6280628  29.8388371  57.2693133  13.9767370  31.0499375  61.0622581
  14.9310623  31.0183318  60.9952513  13.7779893  30.5889999  61.8772807
  14.5666752  29.6200491  63.6293379  15.3859641  30.1144570  63.6528216
  14.8403560  28.7032459  63.6010947  24.3233348  22.0111244  52.9921335
  23.4359203  22.2960894  52.7741529  24.7387337  21.8505007  52.1448611
  27.6747884  22.0357765  56.7075674  28.4508274  22.5254217  56.9800291
  26.9496018  22.4615819  57.1647543  30.1120443  22.7485384  57.7649614
  30.7064934  22.5081120  57.0542923  30.1847027  22.0292514  58.3923151
  12.3317599  36.5918995  58.0792779  12.1972067  35.8319396  57.5130777
  11.9149661  37.3159895  57.6121568  23.4676562  31.7755918  47.0869355
  24.1712412  31.9805921  47.7027010  22.7439210  32.3432680  47.3518438
  24.2974372  27.5265780  53.2071625  24.2409573  27.9834331  52.3679257
  24.8502714  26.7656464  53.0294468  28.1079178  23.3155511  54.0321744
  27.8516112  22.9152147  54.8629952  27.4832046  24.0299305  53.9071883
  32.4191516  26.0551585  56.5393036  31.8591074  26.1244774  57.3124598
  31.8135019  25.8792569  55.8192532  15.4886725  37.4888312  58.2911222
  15.3719109  38.4333744  58.1889912  14.6679171  37.1861873  58.6797021
  25.3763259  32.2138448  49.1367815  26.2108863  31.7819646  48.9545289
  25.2147602  32.0420461  50.0644709  25.0309151  28.7170561  50.5024154
  24.9757955  28.5514832  49.5612598  24.4055207  29.4246594  50.6586344
   9.8201666  23.9538625  64.3285576  10.4660530  23.4437579  64.8172801
   9.6118817  24.6907307  64.9029001  22.3455058  31.0219473  69.8277717
  23.2146218  31.1960125  69.4664352  21.8661810  31.8413890  69.7053446
  18.3405277  18.2178670  50.0809472  18.3283947  19.1620510  50.2377743
  19.2328699  18.0348815  49.7868934  16.5141239  38.1416574  61.5067150
  17.4168485  38.1740184  61.8233645  16.2878609  37.2117025  61.5213486
  18.2694841  36.8947560  58.1677229  17.3190472  36.8949422  58.0541601
  18.5727327  36.1480295  57.6513264  22.1557396  14.8121446  54.3355409
  21.3889792  14.2579933  54.4812091  22.5668101  14.8843315  55.1969561
  14.1599157  21.1006242  68.4260590  15.0230619  20.7443047  68.6363915
  13.5864568  20.7620137  69.1135995  34.0047534  42.7308099  59.2322991
  34.6425944  42.6114846  58.5286331  33.8868377  43.6788943  59.2910944
  30.8137240  42.6835527  59.1684516  30.4755752  42.5676591  58.2805051
  31.6827009  42.2826692  59.1485522  26.6724056  44.5371003  55.1581407
  26.1088921  44.4460940  54.3897695  26.5576451  43.7170908  55.6383900
  31.2957023  43.8370378  65.1270722  31.2845664  43.4423177  64.2551225
  31.4577663  43.1036451  65.7204493  24.2188488  46.0322195  57.9965627
  25.0109780  45.6913019  57.5811927  24.4585138  46.1417170  58.9167781
  26.1779242  45.2931108  50.8683006  26.9510118  44.7460095  50.7295882
  26.5304641  46.1575357  51.0797468  28.0164285  46.6207490  64.0749906
  27.7254151  47.5253121  63.9596572  28.6521269  46.6624018  64.7893975
  28.9420491  43.9984339  60.6651265  29.5384064  43.7740361  59.9508228
  28.9995463  43.2569084  61.2676713  28.5145520  41.4523774  48.5001456
  28.7671041  40.9305295  47.7384919  27.5770079  41.2889920  48.6028140
  33.5588803  40.4559552  56.3076199  34.3451892  40.0378976  55.9566616
  33.8227507  41.3605645  56.4757848  33.7298880  45.8932403  51.0064856
  33.0944713  45.9667029  51.7185761  33.3996286  46.4826002  50.3283935
  38.9597230  40.3934786  57.2109178  39.6922402  39.8234003  57.4447007
  38.2036585  40.0056386  57.6515684  28.2341809  43.3551880  50.7025831
  28.1178067  42.6796783  51.3706915  28.3444068  42.8684254  49.8857984
  30.5773349  42.8162027  54.4072520  30.2131557  42.2892648  55.1185442
  31.4340465  42.4260496  54.2339006  36.4822650  34.1056360  61.6703787
  36.1505975  34.9751771  61.4465002  35.8868264  33.7892644  62.3497817
  30.2178836  37.8451927  49.4033869  30.3853239  38.7132163  49.7704340
  30.0276006  38.0079209  48.4795158  32.9754170  46.3068906  61.0699699
  32.6754893  47.2093945  60.9615506  32.6305229  46.0401089  61.9220852
  26.4266651  42.7582703  57.1036404  25.5017148  42.6258917  57.3114095
  26.6751064  43.5376922  57.6006346  36.3751313  38.8251446  58.7497137
  35.4668191  38.7566854  58.4555898  36.3238909  39.3023391  59.5778962
  30.1968057  40.3009584  50.3880536  30.0767683  40.7466635  51.2266016
  29.5020646  40.6494902  49.8294074  23.7875462  42.4015976  57.9380193
  23.9167843  42.6550455  58.8519604  23.1072913  42.9943684  57.6184848
  30.4492179  40.2441092  66.6932034  29.6725513  40.8035012  66.6834898
  31.0882742  40.7297875  67.2146904  38.2412960  37.0267884  60.5275011
  37.5987340  37.3200418  59.8814805  37.7367888  36.9120805  61.3328207
  35.8953124  40.7731058  51.2160870  36.8070980  41.0058444  51.0408567
  35.3862771  41.3568102  50.6535948  28.7038552  43.0526545  66.2550001
  29.4453236  43.5911589  65.9784824  27.9975537  43.6792834  66.4121553
  34.1793891  45.1955685  64.8522162  34.5877247  44.7538096  64.1076795
  33.4571153  44.6208313  65.1056355  30.5324961  40.1328292  62.2255719
  31.3786156  40.5567706  62.3690368  30.4723599  39.4761916  62.9194282
  34.5022706  45.7556876  58.6074451  33.8731568  45.9202590  57.9050519
  34.1148368  46.1698486  59.3785415  38.3811938  46.6911314  55.9618815
  37.6962976  47.0710215  55.4115848  38.4655787  47.3006641  56.6950763
  33.6824407  37.7932661  63.8836893  33.4385338  38.5474721  63.3471169
  33.9584337  38.1718008  64.7184140  35.6362869  44.3371273  62.5614159
  35.8479765  44.9803033  61.8848540  35.5892618  43.5033589  62.0936089
  33.2389098  36.9489094  59.4650731  32.3773577  37.2470347  59.7567468
  33.2651533  37.1659492  58.5331763  30.0550668  45.4931284  55.8724536
  30.5189013  45.7718987  55.0829159  29.7907466  44.5914729  55.6897627
  26.9474749  45.0402766  58.8104300  27.5176106  45.4690034  58.1721784
  27.5382861  44.7585350  59.5088485  28.9919554  41.6154436  52.6814101
  29.6943597  42.0675480  53.1488028  28.6600182  40.9738255  53.3093995
  27.4399915  40.2066193  67.0565311  26.8098576  40.8882474  67.2900708
  27.3336003  40.0949275  66.1118449  22.7344888  39.8737989  57.9831235
  21.9443942  40.1295518  57.5071346  23.2256135  40.6886327  58.0883276
  36.7508697  47.2143228  60.7336516  37.5726141  46.8123416  60.4519197
  36.7471100  47.1111462  61.6852632  24.6859633  40.2382568  54.9414712
  23.8890796  40.3501263  55.4598207  24.4585225  40.5769221  54.0755602
  30.5165301  46.7627272  62.8897226  30.5809733  47.2247679  63.7255398
  29.8076225  46.1324637  63.0179536  21.0182591  40.1268480  60.4146226
  21.2690629  41.0115490  60.6803802  21.5542139  39.9473081  59.6421318
  44.8414690  43.5581977  57.0821487  44.0878399  42.9889375  56.9265492
  44.9762232  43.5244641  58.0292122  30.2313318  48.4295379  52.7576207
  30.0958993  49.2746915  53.1861055  30.7723131  48.6314657  51.9942140
  26.7180658  34.5086959  69.4190562  26.3247604  33.9553158  70.0938206
  27.5346798  34.8197537  69.8097079  23.6842716  45.9470817  53.3304132
  24.1967236  46.7414067  53.4809696  24.3365429  45.2497108  53.2637733
  25.4937600  49.0636573  55.4126885  25.6704229  49.9854538  55.2247869
  26.2894434  48.7494993  55.8421265  29.6348619  35.9244838  67.0110818
  30.3758332  36.5251991  66.9315281  29.8666542  35.1822476  66.4528861
  24.7789957  41.1101205  65.2889048  24.6643472  40.2086463  65.5896147
  23.9234475  41.3564902  64.9373865  31.8581795  49.0518946  66.8876549
  31.4145649  48.2655324  66.5697453  32.5199008  49.2398096  66.2220440
  26.6168916  50.5814747  61.4137227  27.1676341  50.4531811  60.6414221
  25.7780392  50.8809636  61.0632120  33.9563033  49.3321746  64.9157950
  33.9381508  50.1530627  64.4238219  34.8782953  49.2075821  65.1408091
  30.4136087  46.8465875  65.7581458  30.9464424  46.0854163  65.5280766
  29.8850168  46.5539527  66.5005613  33.5805782  31.9525941  61.2875100
  33.2370051  32.8427583  61.2114211  33.9484745  31.7627599  60.4244685
  21.6491633  44.2759471  54.1063702  22.4866855  44.6856480  53.8897410
  21.8269900  43.3358914  54.0763896  33.5456065  41.9434552  49.7947535
  33.0302688  42.7139157  50.0335923  33.2733373  41.2699688  50.4180597
  31.1303176  36.7884253  54.8532774  30.2744772  36.3991103  54.6738412
  31.5430127  36.8676214  53.9932559  32.6602322  34.3230596  59.2524333
  32.1567118  34.2860731  58.4392139  32.9532929  35.2323339  59.3120990
  28.9045208  34.4069326  58.2590515  29.7698205  34.2112135  57.8996405
  28.9722717  34.1779678  59.1859872  38.5190339  44.6966907  51.7300709
  37.7419782  44.3578066  51.2855871  39.1981820  44.7019530  51.0555674
  33.3342368  39.8161644  51.6207316  33.0292503  40.1307793  52.4717460
  34.2872810  39.8943064  51.6634649  31.7788800  45.9751868  53.2700270
  31.2510161  45.2404627  52.9573508  31.2776302  46.7526544  53.0240239
  36.7581646  44.1700888  58.3867317  36.1005320  44.8600149  58.4747445
  37.5622045  44.5597320  58.7301303  26.5107527  36.6371534  55.6306882
  27.0851279  36.4146715  54.8980075  27.0978510  36.7060228  56.3835483
  35.5687105  42.5245261  56.4371258  36.0818986  43.1575253  56.9392968
  36.2188328  41.9246456  56.0714618  26.8377114  38.6675995  49.6502767
  26.0014427  39.0050681  49.9712042  26.6981884  38.5324975  48.7129904
  28.8130195  33.5112783  54.3581951  28.1594607  33.1961800  53.7338566
  28.7710669  32.8888523  55.0841774  29.9241400  43.7932078  46.2735243
  29.0168462  43.5621331  46.4726392  30.4212432  42.9969697  46.4609225
  32.0467935  39.9994716  58.6829599  31.1290497  40.2209663  58.5251287
  32.4628079  40.0741027  57.8241306  32.8302983  41.3986132  53.8132279
  33.5774802  41.9107529  53.5039401  33.0994573  41.0770185  54.6736673
  31.1029633  43.8944673  50.7959234  30.1940853  43.6103705  50.8931703
  31.1324717  44.3143751  49.9362540  36.3348901  47.5051262  54.5650401
  35.8811228  46.6642172  54.6215592  35.7042867  48.1412661  54.9025181
  35.2781820  38.4343248  55.7951069  34.5404577  37.9220634  56.1261311
  35.5308594  37.9943630  54.9834345  34.7781840  49.3427759  55.5000219
  35.0704814  49.9032816  54.7812585  35.2880461  49.6356320  56.2553378
  35.3793448  31.2119500  56.3892838  35.6852324  30.3516864  56.1018753
  36.1046052  31.8037120  56.1891832  21.6717804  41.6150187  54.7774436
  21.4742203  41.0219547  54.0525502  21.1164468  41.3102397  55.4950375
  29.6514527  41.5073293  56.8969029  29.7063137  40.5547130  56.8211505
  28.8405729  41.6632732  57.3810327  30.8005721  45.4353416  48.1347312
  30.3625151  44.7189275  47.6752949  31.5416162  45.6629531  47.5732404
  27.5906887  40.1250353  54.6559408  26.7774753  40.4244524  55.0624600
  28.0865881  39.7306042  55.3733890  29.7415465  50.1208110  56.5893672
  29.6991644  50.3468956  55.6602204  30.6578164  49.8871485  56.7379474
  33.1881099  40.5892177  63.4874302  33.5430487  40.8163651  64.3468767
  33.8353230  40.9210554  62.8651557  38.9178836  43.7110613  54.1923631
  38.7796734  43.9012209  53.2644820  38.5615055  44.4729996  54.6491682
  27.0820962  37.6968709  60.2720643  27.7220341  37.5557468  59.5743606
  26.2498493  37.4103222  59.8959245  38.9448215  45.7787140  59.2034902
  39.3784722  45.6862429  60.0517956  39.6579796  45.7544641  58.5654918
  27.8581266  46.9971139  56.3855635  28.6521864  46.5021459  56.1838210
  27.1472958  46.4689002  56.0223341  32.6776110  49.3789234  60.7368003
  32.7313133  49.9480171  61.5045719  31.8090892  49.5491120  60.3722040
  24.1664029  41.1414221  52.4615388  23.2361617  41.0798676  52.6785350
  24.2621501  40.6190173  51.6652029  24.0849578  37.6669034  55.0493630
  24.3456396  38.5814367  54.9402790  24.9066751  37.1993476  55.1990242
  25.5574504  39.0806791  62.2192454  26.2297557  38.8724153  61.5705103
  24.7304290  38.8828877  61.7797686  39.8063765  45.8210841  61.7367788
  39.9999655  46.7256652  61.9827063  39.7064383  45.3618260  62.5706373
  31.4600076  35.7068732  64.2358115  30.8127991  36.4058681  64.1422591
  32.2301091  36.1404876  64.6034363  34.8678874  45.9717584  67.3108668
  34.7164380  45.7428135  66.3938752  34.8583553  46.9288185  67.3240013
  31.6364210  43.5449496  62.2954935  32.5656270  43.6960656  62.1223902
  31.2155240  43.6333517  61.4403581  30.4352542  47.5700161  60.0653472
  30.2963628  47.2018945  60.9379410  29.6467138  48.0847800  59.8937430
  31.9857757  46.9481764  57.4542310  31.6507590  46.9082534  58.3499960
  31.4861703  46.2826480  56.9812720  25.9602001  42.3549394  62.9794891
  25.8221799  41.6229632  63.5806430  26.8706924  42.2658294  62.6979079
  34.9216949  44.2937798  47.7279370  34.3046119  43.5684626  47.6312422
  34.4533437  45.0547158  47.3846444  28.5884302  42.0669353  62.4678571
  29.2983920  41.4262545  62.4265189  28.5453610  42.3182248  63.3904752
  36.5771080  49.0036706  65.3885150  36.5183627  48.3195926  64.7215733
  36.9790599  49.7455696  64.9365776  27.3013236  39.0534571  64.2874210
  26.7650593  38.6025309  64.9395807  26.7129944  39.1880480  63.5444675
  26.7115495  38.5123222  46.8500674  25.8344961  38.3912023  46.4862921
  27.1873248  37.7209301  46.5979563  36.5788488  46.9676290  63.6199130
  35.6915266  46.6302212  63.7425529  37.1487039  46.2359321  63.8567895
  18.2317635  43.3000382  56.9442181  18.9188675  42.9862112  56.3563196
  18.0765763  44.2041747  56.6709433  23.0352357  38.1890579  61.3727205
  22.9510546  37.5816248  60.6377615  22.2135063  38.6799597  61.3736701
  30.1089641  51.6277743  60.5860373  30.0359813  52.4332714  61.0979678
  29.6667034  51.8269708  59.7608394  33.2076071  36.6744142  56.7397400
  33.7044770  35.9214104  56.4198470  32.4363052  36.7108459  56.1740609
  41.0605828  42.3784508  58.3815691  41.0495704  43.2609223  58.0109624
  40.1923208  42.0256058  58.1870228  32.5688325  51.5264577  62.7418532
  33.2816297  52.1612041  62.6694433  32.0778353  51.6228443  61.9258533
  34.2905851  45.4315829  54.3135823  33.3562130  45.5517292  54.1440528
  34.4682520  44.5288296  54.0495833  29.7911040  38.8161525  56.4669084
  29.4208827  38.2632565  57.1549990  30.2870132  38.2119659  55.9144085
  37.6778403  41.2733149  54.8485857  38.1438855  42.1061140  54.7746160
  38.1285903  40.8078130  55.5531116  27.6200238  49.2759020  63.5624102
  28.3209698  49.9095503  63.7153497  27.1495353  49.6173752  62.8019742
  35.6495066  33.6413736  58.8876759  34.7358145  33.8717962  59.0558966
  36.0788167  33.7252180  59.7390791  35.4201524  41.8303628  61.3876653
  34.7672974  42.0779535  60.7329106  35.7981904  41.0167766  61.0539130
  31.4689097  42.5723439  67.8742690  30.7929734  42.4717568  68.5445065
  32.2916731  42.4162652  68.3378687  23.2167956  48.8095375  60.4955205
  23.8021393  48.0639063  60.6283109  23.0192795  49.1199332  61.3791869
  17.8085611  41.3800975  59.2159648  17.8469710  40.8464566  60.0096766
  17.3025904  40.8536181  58.5970625  25.1876373  36.2265516  62.7122191
  25.2517700  37.0880347  62.2999588  25.1243493  35.6139518  61.9794549
  24.6628646  38.2988648  66.3595225  25.2900685  37.9165726  66.9732749
  23.8056565  38.0802850  66.7250917  35.0622754  48.7051624  67.9648960
  35.6062658  49.3181582  67.4703915  34.4809599  49.2631202  68.4815973
  21.4394188  40.1065078  52.2913580  21.7347630  39.1975756  52.2380633
  20.5382224  40.0852817  51.9694582  33.3480267  51.8272342  59.0963988
  33.2231407  51.0262081  58.5874934  34.0059358  52.3218535  58.6077958
  24.9688435  38.1821074  58.2741128  24.2475021  38.7957042  58.1348602
  25.7581691  38.7178839  58.1957774  35.4115176  49.6281362  60.7243538
  34.4645511  49.5086713  60.6521865  35.7597949  48.7403860  60.8069800
  27.7714749  35.5175501  64.5481780  28.2949151  35.7637797  65.3108089
  27.5527082  36.3495535  64.1284917  23.1682030  37.7879175  52.4152905
  22.8394736  36.9076554  52.2328011  23.5221401  37.7326844  53.3029294
  32.4161609  49.4234078  56.9247890  32.2686571  48.4950785  57.1055460
  33.2415102  49.4454169  56.4404966  26.2823853  38.0752145  52.7828382
  26.6219926  38.6038066  52.0606991  26.7295974  38.4132551  53.5586949
  28.9767294  36.4589196  62.2331451  28.6364114  35.6597009  62.6352130
  28.2706300  36.7590907  61.6608284  29.6283766  33.5438508  60.6858774
  30.4509835  33.0698986  60.5637664  29.8721829  34.3228992  61.1857460
  28.2692000  36.5726767  50.9821675  28.9900363  36.9508019  50.4785392
  27.6457304  37.2915643  51.0856653  32.4123123  37.2771916  51.9180008
  32.6286738  38.1596553  51.6168836  31.9317190  36.8858129  51.1885650
  27.1522345  40.2357629  58.4950752  27.0066925  40.5497932  59.3875034
  26.6747548  40.8542529  57.9421651  29.0118727  37.2260177  58.5431642
  28.9980296  36.3301270  58.2063940  29.7291156  37.2330840  59.1769928
  30.8644858  37.6597517  60.5884769  30.6062636  38.5814588  60.5869100
  30.3329899  37.2627951  61.2785233  21.6268007  42.7762973  61.4338413
  21.0821475  43.5522781  61.5658688  22.5047357  43.1233778  61.2757535
  28.4155623  36.1074557  53.8119212  28.5371535  35.1791203  54.0110099
  28.1257666  36.1213243  52.8997527  31.2846814  33.7929467  56.9485932
  31.3068511  33.8568801  55.9937911  31.7014873  32.9533976  57.1426438
  41.6630438  43.5284727  54.9865154  42.1061584  42.7792052  54.5884278
  40.7856948  43.5194863  54.6038886  22.4134029  41.9032869  64.3268570
  21.6715765  42.0515505  64.9133201  22.0926773  42.1641135  63.4635320
  30.3577691  51.4448848  64.1248960  30.6664818  51.1997994  64.9971660
  31.1553173  51.6495486  63.6367830  22.8590642  49.7898298  56.3578965
  23.6848662  49.4902070  55.9777608  22.5084694  49.0205921  56.8068754
  27.8272175  49.1424766  58.4276638  27.2052185  48.4795471  58.1278866
  28.4977042  49.1685898  57.7450286  21.0599247  47.7084625  57.3167898
  20.2231156  47.2806799  57.1351900  21.0322893  47.9017068  58.2538690
  27.8996703  37.6206554  68.0209144  27.9484858  38.4968677  67.6386914
  28.4419217  37.0783947  67.4480788  38.3851549  48.1647678  67.3010282
  37.5947092  48.1471816  66.7614781  38.1484903  48.7035971  68.0559318
  38.5049424  45.0140144  64.6143010  38.5547429  44.8490151  65.5558533
  38.3963347  44.1467403  64.2240891  27.3885682  47.6928690  51.9035099
  27.5373803  48.3764154  51.2501772  28.1952126  47.6733780  52.4184555
  35.7953186  40.9971072  65.9302317  36.6963049  40.8577537  65.6386315
  35.8701161  41.1625527  66.8700494  30.1295991  38.3737927  64.7755503
  29.2599301  38.6671493  64.5038092  30.3655472  38.9578372  65.4962767
  40.0067621  47.4337086  64.8585032  39.7152429  47.7967066  65.6948493
  39.3939752  46.7204094  64.6798364  41.2063303  44.9989965  57.3787602
  42.0410194  45.4379769  57.5425162  41.3422432  44.5228619  56.5595848
  38.2554809  42.5569700  63.3265090  38.7308930  42.7497346  62.5183941
  37.3320374  42.6128886  63.0808473  25.1438315  43.7193867  52.9096168
  24.8984357  42.8156197  53.1076378  25.3134230  43.7211018  51.9675646
  32.8335025  34.5917544  62.2920924  33.3516969  35.3278571  61.9667412
  32.4790158  34.8981537  63.1267683  24.4133963  39.4522225  50.4082329
  23.7203208  39.5266580  49.7522365  24.1685715  38.6882569  50.9303846
  33.0847619  31.0117826  57.8121820  33.3649373  30.3441015  58.4382247
  33.8698226  31.2046922  57.2996484  36.9556478  39.4335460  61.5593395
  37.9073901  39.5333558  61.5805619  36.7859928  38.6413729  62.0691480
  34.9770857  36.5191043  61.7452796  34.3820789  36.7996056  61.0499285
  34.6920554  37.0084944  62.5169537  39.4344556  42.6541580  60.6735695
  39.4020876  41.7157581  60.8595379  40.0445179  42.7325617  59.9401520
  31.2727886  41.5237633  46.7162899  32.2186991  41.3943841  46.7851317
  30.8942131  40.7852295  47.1932327  39.5839044  39.4452623  60.7193978
  39.0678093  38.6611080  60.5323907  40.4678993  39.1171340  60.8840498
  37.2449771  33.1893639  56.6789791  37.0474592  32.8808727  57.5633123
  37.8549477  33.9155278  56.8087721  45.2521105  43.7157587  59.8141732
  45.9824494  43.4542875  60.3749435  44.6428051  42.9786309  59.8543800
  43.3336403  41.8565449  60.4116183  42.6069566  41.7221414  59.8032674
  42.9183689  42.1642278  61.2172901  31.1566579  45.5755379  68.1763556
  32.0769588  45.7533978  68.3703602  31.1216162  44.6311424  68.0243255
  29.4570804  39.4487609  46.6517784  28.5502259  39.1520722  46.7280498
  29.7346785  39.1517427  45.7852070  20.3748744  40.7693973  57.1016831
  20.0551528  39.9159281  56.8091205  19.8282172  40.9842551  57.8574798
  24.1528651  43.4856414  60.8186337  24.3714661  44.4173522  60.8374371
  24.5654425  43.1264388  61.6041141  31.0732869  33.9924499  52.8062025
  30.2633598  33.6471584  53.1817272  31.7617286  33.6832043  53.3949637
  33.0023418  33.0702546  54.4286322  33.5554456  33.4897999  55.0876345
  33.2393504  32.1438294  54.4709278  29.0256517  39.0589619  70.2089086
  28.9253244  40.0083976  70.1401177  28.8078059  38.7307858  69.3365156
  28.2269588  36.3074545  46.7929763  29.0888752  36.6329443  47.0525581
  28.4119932  35.5206040  46.2802829  20.2437004  44.3896884  59.0709952
  19.5500475  43.9750837  58.5579907  20.9909995  44.4317421  58.4743371
  36.3802225  35.1803071  53.9364986  35.8000894  35.8387875  53.5543039
  36.1138157  34.3580416  53.5252404  34.8305791  34.5808129  56.1386307
  35.3305569  34.6924663  55.3300626  35.4741399  34.2769182  56.7787115
  28.8887787  42.4886758  69.0254148  28.4054869  43.2887118  69.2318037
  28.9748726  42.4994703  68.0721592  22.1573746  44.3215138  56.9475967
  22.1344435  44.4202825  55.9957850  22.4674383  45.1680289  57.2693133
  24.8161124  46.3791293  61.0622581  25.7704378  46.3475235  60.9952513
  24.6173648  45.9181917  61.8772807  25.4060506  44.9492409  63.6293379
  26.2253395  45.4436488  63.6528216  25.6797314  44.0324377  63.6010947
  35.1627103  37.3403161  52.9921335  34.2752958  37.6252812  52.7741529
  35.5781092  37.1796925  52.1448611  38.5141639  37.3649682  56.7075674
  39.2902029  37.8546135  56.9800291  37.7889773  37.7907737  57.1647543
  40.9514197  38.0777302  57.7649614  41.5458688  37.8373038  57.0542923
  41.0240781  37.3584432  58.3923151  23.1711353  51.9210912  58.0792779
  23.0365821  51.1611313  57.5130777  22.7543415  52.6451812  57.6121568
  35.1368126  42.8557697  53.2071625  35.0803328  43.3126249  52.3679257
  35.6896469  42.0948382  53.0294468  38.9472932  38.6447429  54.0321744
  38.6909867  38.2444065  54.8629952  38.3225800  39.3591223  53.9071883
  43.2585270  41.3843502  56.5393036  42.6984828  41.4536692  57.3124598
  42.6528774  41.2084487  55.8192532  35.8702906  44.0462479  50.5024154
  35.8151710  43.8806750  49.5612598  35.2448961  44.7538511  50.6586344
  20.6595421  39.2830543  64.3285576  21.3054284  38.7729497  64.8172801
  20.4512572  40.0199225  64.9029001  33.1848813  46.3511390  69.8277717
  34.0539973  46.5252043  69.4664352  32.7055564  47.1705807  69.7053446
  29.1799031  33.5470588  50.0809472  29.1677701  34.4912427  50.2377743
  30.0722453  33.3640733  49.7868934  32.9951151  30.1413364  54.3355409
  32.2283546  29.5871851  54.4812091  33.4061856  30.2135233  55.1969561
  24.9992912  36.4298160  68.4260590  25.8624373  36.0734965  68.6363915
  24.4258322  36.0912055  69.1135995  45.0187646  60.5247603  64.8522162
  45.4271002  60.0830014  64.1076795  44.2964907  59.9500231  65.1056355
  38.2793670  55.5358111  67.0565311  37.6492330  56.2174392  67.2900708
  38.1729758  55.4241192  66.1118449  37.5574412  49.8378877  69.4190562
  37.1641358  49.2845075  70.0938206  38.3740553  50.1489455  69.8097079
  40.4742373  51.2536756  67.0110818  41.2152087  51.8543909  66.9315281
  40.7060296  50.5114394  66.4528861  35.6183711  56.4393123  65.2889048
  35.5037227  55.5378380  65.5896147  34.7628229  56.6856820  64.9373865
  42.6975549  64.3810863  66.8876549  42.2539403  63.5947242  66.5697453
  43.3592763  64.5690014  66.2220440  44.7956787  64.6613663  64.9157950
  44.7775263  65.4822544  64.4238219  45.7176707  64.5367738  65.1408091
  41.2529841  62.1757793  65.7581458  41.7858178  61.4146081  65.5280766
  40.7243923  61.8831445  66.5005613  36.3968258  54.4098708  62.2192454
  37.0691312  54.2016070  61.5705103  35.5698045  54.2120794  61.7797686
  42.2993830  51.0360649  64.2358115  41.6521745  51.7350599  64.1422591
  43.0694846  51.4696793  64.6034363  38.1406990  54.3826489  64.2874210
  37.6044347  53.9317227  64.9395807  37.5523699  54.5172397  63.5444675
  47.4182242  62.2968208  63.6199130  46.5309021  61.9594130  63.7425529
  47.9880793  61.5651239  63.8567895  33.8746111  53.5182496  61.3727205
  33.7904300  52.9108166  60.6377615  33.0528818  54.0091515  61.3736701
  42.3082852  57.9015356  67.8742690  41.6323489  57.8009486  68.5445065
  43.1310485  57.7454570  68.3378687  36.0270128  51.5557434  62.7122191
  36.0911454  52.4172264  62.2999588  35.9637248  50.9431435  61.9794549
  35.5022400  53.6280566  66.3595225  36.1294439  53.2457643  66.9732749
  34.6450319  53.4094768  66.7250917  38.6108503  50.8467418  64.5481780
  39.1342905  51.0929715  65.3108089  38.3920837  51.6787453  64.1284917
  40.4677520  48.8730426  60.6858774  41.2903590  48.3990904  60.5637664
  40.7115584  49.6520910  61.1857460  33.2527783  57.2324787  64.3268570
  32.5109519  57.3807422  64.9133201  32.9320527  57.4933053  63.4635320
  38.7390457  52.9498472  68.0209144  38.7878613  53.8260595  67.6386914
  39.2812972  52.4075865  67.4480788  43.9241374  46.3409744  57.8121820
  44.2043128  45.6732933  58.4382247  44.7091981  46.5338840  57.2996484
  41.9960333  60.9047297  68.1763556  42.9163343  61.0825896  68.3703602
  41.9609916  59.9603342  68.0243255  39.8650271  54.3881537  70.2089086
  39.7646998  55.3375894  70.1401177  39.6471813  54.0599776  69.3365156
  39.7281541  57.8178676  69.0254148  39.2448623  58.6179036  69.2318037
  39.8142480  57.8286621  68.0721592  36.2454261  60.2784327  63.6293379
  37.0647150  60.7728405  63.6528216  36.5191069  59.3616295  63.6010947
  31.4989175  54.6122461  64.3285576  32.1448039  54.1021415  64.8172801
  31.2906326  55.3491142  64.9029001  43.8344905  45.4705282  54.3355409
  43.0677301  44.9163769  54.4812091  44.2455610  45.5427151  55.1969561
  35.8386666  51.7590078  68.4260590  36.7018128  51.4026883  68.6363915
  35.2652077  51.4203972  69.1135995  49.6951794  77.2791326  64.0749906
  49.4041660  78.1836956  63.9596572  50.3308778  77.3207853  64.7893975
  49.6362458  83.7297062  54.0370667  49.5586488  84.6804887  54.1159148
  49.0324102  83.3842934  54.6945593  48.2956425  81.2398583  61.4137227
  48.8463850  81.1115646  60.6414221  47.4567901  81.5393472  61.0632120
  47.2749288  86.4782456  58.1818869  47.5145886  87.1100980  58.8597888
  46.4318485  86.1270496  58.4684228  49.2987747  79.9342855  63.5624102
  49.9997207  80.5679338  63.7153497  48.8282862  80.2757587  62.8019742
  54.0596207  82.5247156  55.4904823  54.2418601  81.7068812  55.9532575
  54.8829193  82.7414848  55.0529713  47.7494120  82.5030458  55.5117647
  47.0804496  82.9876586  55.0281688  47.6106990  82.7499678  56.4261026
  51.8899389  84.5374201  62.1100306  52.4417697  84.7005823  62.8749391
  52.2305582  85.1278639  61.4380331  57.4878556  81.4232139  53.3674855
  57.6615433  80.8578562  52.6148707  57.9807447  82.2233034  53.1854344
  44.0921538  72.5616705  64.3268570  43.3503274  72.7099340  64.9133201
  43.7714282  72.8224970  63.4635320  60.3745152  78.1898609  51.9959084
  60.8996476  78.5285882  51.2708404  60.2867504  77.2545625  51.8122218
  52.0585812  84.2570593  56.3554337  51.6190803  83.7646971  57.0487193
  52.8093929  83.7143560  56.1146412  49.5059684  79.8008602  58.4276638
  48.8839694  79.1379307  58.1278866  50.1764551  79.8269734  57.7450286
  47.0848015  75.6076244  63.6293379  47.9040904  76.1020323  63.6528216
  47.3584823  74.6908213  63.6010947  48.0067988  83.4764065  58.2911222
  47.8900372  84.4209497  58.1889912  47.1860434  83.1737626  58.6797021
  49.0322502  84.1292327  61.5067150  49.9349749  84.1615937  61.8233645
  48.8059872  83.1992778  61.5213486  50.7876104  82.8823313  58.1677229
  49.8371735  82.8825175  58.0541601  51.0908590  82.1356048  57.6513264
  66.5228798  88.7183852  59.2322991  67.1607208  88.5990599  58.5286331
  66.4049641  89.6664696  59.2910944  63.3318504  88.6711280  59.1684516
  62.9937015  88.5552344  58.2805051  64.2008272  88.2702445  59.1485522
  59.1905320  90.5246756  55.1581407  58.6270185  90.4336693  54.3897695
  59.0757715  89.7046661  55.6383900  63.8138287  89.8246132  65.1270722
  63.8026928  89.4298930  64.2551225  63.9758926  89.0912204  65.7204493
  56.7369752  92.0197948  57.9965627  57.5291043  91.6788772  57.5811927
  56.9766402  92.1292923  58.9167781  64.7704878  94.1917724  50.4695872
  64.1192858  94.7771804  50.0829886  65.5649241  94.7223919  50.5290909
  58.6960505  91.2806861  50.8683006  59.4691381  90.7335848  50.7295882
  59.0485904  92.1451110  51.0797468  60.5345548  92.6083243  64.0749906
  60.2435414  93.5128874  63.9596572  61.1702532  92.6499771  64.7893975
  61.4601755  89.9860092  60.6651265  62.0565327  89.7616114  59.9508228
  61.5176726  89.2444837  61.2676713  61.0326783  87.4399527  48.5001456
  61.2852304  86.9181048  47.7384919  60.0951342  87.2765673  48.6028140
  66.0770066  86.4435306  56.3076199  66.8633155  86.0254729  55.9566616
  66.3408770  87.3481398  56.4757848  66.2480143  91.8808156  51.0064856
  65.6125976  91.9542782  51.7185761  65.9177550  92.4701755  50.3283935
  71.4778493  86.3810539  57.2109178  72.2103665  85.8109756  57.4447007
  70.7217849  85.9932139  57.6515684  60.7523072  89.3427633  50.7025831
  60.6359330  88.6672537  51.3706915  60.8625332  88.8560007  49.8857984
  63.0954613  88.8037780  54.4072520  62.7312820  88.2768401  55.1185442
  63.9521729  88.4136249  54.2339006  62.7360100  83.8327680  49.4033869
  62.9034502  84.7007916  49.7704340  62.5457269  83.9954962  48.4795158
  65.4935433  92.2944659  61.0699699  65.1936156  93.1969698  60.9615506
  65.1486493  92.0276842  61.9220852  58.9447915  88.7458456  57.1036404
  58.0198411  88.6134670  57.3114095  59.1932328  89.5252675  57.6006346
  68.8932577  84.8127199  58.7497137  67.9849454  84.7442607  58.4555898
  68.8420173  85.2899144  59.5778962  62.7149321  86.2885337  50.3880536
  62.5948946  86.7342388  51.2266016  62.0201909  86.6370655  49.8294074
  56.3056726  88.3891729  57.9380193  56.4349107  88.6426208  58.8519604
  55.6254177  88.9819437  57.6184848  60.4756213  99.0588979  54.0370667
  60.3980243 100.0096804  54.1159148  59.8717857  98.7134852  54.6945593
  70.7594223  83.0143637  60.5275011  70.1168604  83.3076171  59.8814805
  70.2549152  82.8996558  61.3328207  68.4134387  86.7606811  51.2160870
  69.3252243  86.9934197  51.0408567  67.9044034  87.3443855  50.6535948
  61.2219815  89.0402298  66.2550001  61.9634499  89.5787342  65.9784824
  60.5156800  89.6668587  66.4121553  66.6975155  91.1831438  64.8522162
  67.1058511  90.7413849  64.1076795  65.9752416  90.6084066  65.1056355
  63.0506225  86.1204045  62.2255719  63.8967420  86.5443459  62.3690368
  62.9904862  85.4637670  62.9194282  67.0203969  91.7432629  58.6074451
  66.3912832  91.9078343  57.9050519  66.6329631  92.1574239  59.3785415
  70.8993201  92.6787067  55.9618815  70.2144239  93.0585968  55.4115848
  70.9837050  93.2882394  56.6950763  68.1544133  90.3247026  62.5614159
  68.3661028  90.9678786  61.8848540  68.1073881  89.4909342  62.0936089
  65.7570362  82.9364847  59.4650731  64.8954841  83.2346100  59.7567468
  65.7832796  83.1535245  58.5331763  62.5731931  91.4807037  55.8724536
  63.0370277  91.7594740  55.0829159  62.3088729  90.5790482  55.6897627
  59.4656012  91.0278519  58.8104300  60.0357369  91.4565787  58.1721784
  60.0564124  90.7461103  59.5088485  61.5100817  87.6030190  52.6814101
  62.2124861  88.0551233  53.1488028  61.1781446  86.9614008  53.3093995
  55.2526151  85.8613742  57.9831235  54.4625205  86.1171271  57.5071346
  55.7437399  86.6762080  58.0883276  69.2689961  93.2018981  60.7336516
  70.0907404  92.7999169  60.4519197  69.2652364  93.0987216  61.6852632
  57.2040897  86.2258321  54.9414712  56.4072060  86.3377016  55.4598207
  56.9766489  86.5644974  54.0755602  63.0346564  92.7503025  62.8897226
  63.0990997  93.2123432  63.7255398  62.3257488  92.1200390  63.0179536
  53.5363854  86.1144233  60.4146226  53.7871893  86.9991243  60.6803802
  54.0723403  85.9348834  59.6421318  77.3595954  89.5457730  57.0821487
  76.6059662  88.9765128  56.9265492  77.4943495  89.5120394  58.0292122
  62.7494582  94.4171132  52.7576207  62.6140257  95.2622668  53.1861055
  63.2904394  94.6190410  51.9942140  56.2023979  91.9346570  53.3304132
  56.7148500  92.7289820  53.4809696  56.8546692  91.2372861  53.2637733
  58.0118864  95.0512326  55.4126885  58.1885492  95.9730291  55.2247869
  58.8075697  94.7370746  55.8421265  64.3763058  95.0394699  66.8876549
  63.9326912  94.2531077  66.5697453  65.0380272  95.2273849  66.2220440
  59.1350179  96.5690500  61.4137227  59.6857605  96.4407564  60.6414221
  58.2961655  96.8685389  61.0632120  66.4744296  95.3197499  64.9157950
  66.4562772  96.1406380  64.4238219  67.3964216  95.1951574  65.1408091
  62.9317350  92.8341628  65.7581458  63.4645687  92.0729916  65.5280766
  62.4031432  92.5415280  66.5005613  54.1672896  90.2635224  54.1063702
  55.0048118  90.6732233  53.8897410  54.3451164  89.3234667  54.0763896
  66.0637328  87.9310305  49.7947535  65.5483952  88.7014910  50.0335923
  65.7914637  87.2575441  50.4180597  63.6484439  82.7760006  54.8532774
  62.7926036  82.3866856  54.6738412  64.0611391  82.8551967  53.9932559
  61.4226472  80.3945079  58.2590515  62.2879468  80.1987888  57.8996405
  61.4903981  80.1655431  59.1859872  71.0371602  90.6842660  51.7300709
  70.2601045  90.3453819  51.2855871  71.7163083  90.6895283  51.0555674
  65.8523631  85.8037397  51.6207316  65.5473767  86.1183546  52.4717460
  66.8054073  85.8818817  51.6634649  64.2970063  91.9627621  53.2700270
  63.7691425  91.2280380  52.9573508  63.7957566  92.7402297  53.0240239
  69.2762909  90.1576641  58.3867317  68.6186584  90.8475902  58.4747445
  70.0803308  90.5473073  58.7301303  59.0288791  82.6247287  55.6306882
  59.6032543  82.4022468  54.8980075  59.6159773  82.6935981  56.3835483
  68.0868368  88.5121014  56.4371258  68.6000250  89.1451006  56.9392968
  68.7369592  87.9122209  56.0714618  59.3558378  84.6551748  49.6502767
  58.5195690  84.9926434  49.9712042  59.2163148  84.5200728  48.7129904
  61.3311458  79.4988536  54.3581951  60.6775871  79.1837553  53.7338566
  61.2891933  78.8764276  55.0841774  62.4422663  89.7807831  46.2735243
  61.5349725  89.5497084  46.4726392  62.9393695  88.9845450  46.4609225
  65.3490742  98.4905338  49.1931930  64.6752441  98.7937035  49.8016887
  65.7356564  99.2934418  48.8437387  64.5649199  85.9870469  58.6829599
  63.6471760  86.2085416  58.5251287  64.9809342  86.0616780  57.8241306
  65.3484247  87.3861885  53.8132279  66.0956066  87.8983282  53.5039401
  65.6175836  87.0645938  54.6736673  63.6210897  89.8820426  50.7959234
  62.7122116  89.5979458  50.8931703  63.6505981  90.3019504  49.9362540
  68.8530164  93.4927015  54.5650401  68.3992491  92.6517925  54.6215592
  68.2224131  94.1288414  54.9025181  67.7963084  84.4219001  55.7951069
  67.0585841  83.9096387  56.1261311  68.0489857  83.9819383  54.9834345
  67.2963103  95.3303512  55.5000219  67.5886078  95.8908569  54.7812585
  67.8061724  95.6232073  56.2553378  67.8974711  77.1995253  56.3892838
  68.2033588  76.3392617  56.1018753  68.6227316  77.7912873  56.1891832
  54.1899067  87.6025940  54.7774436  53.9923467  87.0095301  54.0525502
  53.6345731  87.2978150  55.4950375  62.1695791  87.4949046  56.8969029
  62.2244401  86.5422883  56.8211505  61.3586993  87.6508485  57.3810327
  63.3186985  91.4229169  48.1347312  62.8806414  90.7065028  47.6752949
  64.0597425  91.6505284  47.5732404  60.1088151  86.1126106  54.6559408
  59.2956016  86.4120277  55.0624600  60.6047145  85.7181795  55.3733890
  62.2596729  96.1083863  56.5893672  62.2172907  96.3344709  55.6602204
  63.1759427  95.8747238  56.7379474  65.7062362  86.5767930  63.4874302
  66.0611750  86.8039404  64.3468767  66.3534494  86.9086307  62.8651557
  71.4360099  89.6986366  54.1923631  71.2977998  89.8887962  53.2644820
  71.0796318  90.4605749  54.6491682  71.4629479  91.7662893  59.2034902
  71.8965986  91.6738182  60.0517956  72.1761060  91.7420394  58.5654918
  60.3762529  92.9846892  56.3855635  61.1703128  92.4897212  56.1838210
  59.6654222  92.4564755  56.0223341  65.1957374  95.3664987  60.7368003
  65.2494396  95.9355924  61.5045719  64.3272155  95.5366873  60.3722040
  56.6845293  87.1289974  52.4615388  55.7542881  87.0674429  52.6785350
  56.7802765  86.6065926  51.6652029  56.6030842  83.6544787  55.0493630
  56.8637659  84.5690120  54.9402790  57.4248014  83.1869229  55.1990242
  72.3245029  91.8086594  61.7367788  72.5180919  92.7132405  61.9827063
  72.2245647  91.3494013  62.5706373  67.3860137  91.9593337  67.3108668
  67.2345644  91.7303888  66.3938752  67.3764817  92.9163938  67.3240013
  64.1545474  89.5325250  62.2954935  65.0837534  89.6836409  62.1223902
  63.7336504  89.6209270  61.4403581  62.9533805  93.5575914  60.0653472
  62.8144891  93.1894698  60.9379410  62.1648402  94.0723553  59.8937430
  63.5481957  98.6585010  51.4079009  63.7233713  98.1873054  52.2224631
  62.8614745  99.2850777  51.6360270  64.5039021  92.9357517  57.4542310
  64.1688853  92.8958287  58.3499960  64.0042966  92.2702233  56.9812720
  58.4783264  88.3425147  62.9794891  58.3403062  87.6105386  63.5806430
  59.3888188  88.2534047  62.6979079  67.4398212  90.2813551  47.7279370
  66.8227383  89.5560379  47.6312422  66.9714701  91.0422911  47.3846444
  61.1065565  88.0545106  62.4678571  61.8165184  87.4138298  62.4265189
  61.0634873  88.3058001  63.3904752  69.0952344  94.9912459  65.3885150
  69.0364890  94.3071679  64.7215733  69.4971862  95.7331449  64.9365776
  58.1143043 101.8074373  58.1818869  58.3539641 102.4392897  58.8597888
  57.2712239 101.4562413  58.4684228  59.2296758  84.4998975  46.8500674
  58.3526224  84.3787776  46.4862921  59.7054511  83.7085054  46.5979563
  69.0969751  92.9552043  63.6199130  68.2096530  92.6177965  63.7425529
  69.6668302  92.2235075  63.8567895  50.7498898  89.2876135  56.9442181
  51.4369938  88.9737865  56.3563196  50.5947027  90.1917500  56.6709433
  55.5533620  84.1766332  61.3727205  55.4691809  83.5692001  60.6377615
  54.7316327  84.6675350  61.3736701  62.6270905  97.6153496  60.5860373
  62.5541076  98.4208467  61.0979678  62.1848298  97.8145461  59.7608394
  62.4160684  96.8525266  54.0963194  61.6328206  97.3946946  54.1901419
  63.1153429  97.3699245  54.4957436  65.7257334  82.6619895  56.7397400
  66.2226034  81.9089857  56.4198470  64.9544316  82.6984212  56.1740609
  73.5787092  88.3660261  58.3815691  73.5676968  89.2484976  58.0109624
  72.7104471  88.0131811  58.1870228  65.0869588  97.5140330  62.7418532
  65.7997560  98.1487794  62.6694433  64.5959617  97.6104196  61.9258533
  66.8087115  91.4191582  54.3135823  65.8743394  91.5393045  54.1440528
  66.9863783  90.5164049  54.0495833  62.3092303  84.8037278  56.4669084
  61.9390091  84.2508318  57.1549990  62.8051395  84.1995412  55.9144085
  70.1959666  87.2608902  54.8485857  70.6620118  88.0936893  54.7746160
  70.6467167  86.7953883  55.5531116  60.1381502  95.2634773  63.5624102
  60.8390961  95.8971256  63.7153497  59.6676617  95.6049505  62.8019742
  68.2635897  93.6052723  51.8472009  68.5395741  93.4909317  52.7565884
  67.3940396  93.2070208  51.8084183  68.1676329  79.6289489  58.8876759
  67.2539409  79.8593715  59.0558966  68.5969430  79.7127933  59.7390791
  67.9382788  87.8179381  61.3876653  67.2854238  88.0655288  60.7329106
  68.3163167  87.0043519  61.0539130  64.8989961  97.8539074  55.4904823
  65.0812356  97.0360730  55.9532575  65.7222947  98.0706766  55.0529713
  65.2332127  96.7807259  52.7519872  65.7619893  96.2699713  52.1390034
  65.4960346  96.4649789  53.6165405  63.9870361  88.5599192  67.8742690
  63.3110998  88.4593321  68.5445065  64.8097994  88.4038405  68.3378687
  55.7349220  94.7971128  60.4955205  56.3202656  94.0514816  60.6283109
  55.5374058  95.1075085  61.3791869  58.5887875  97.8322376  55.5117647
  57.9198250  98.3168503  55.0281688  58.4500745  98.0791596  56.4261026
  50.3266874  87.3676728  59.2159648  50.3650974  86.8340319  60.0096766
  49.8207167  86.8411934  58.5970625  62.7293143  99.8666119  62.1100306
  63.2811451 100.0297741  62.8749391  63.0699337 100.4570557  61.4380331
  67.5804018  94.6927377  67.9648960  68.1243922  95.3057335  67.4703915
  66.9990863  95.2506955  68.4815973  53.9575452  86.0940831  52.2913580
  54.2528893  85.1851509  52.2380633  53.0563488  86.0728570  51.9694582
  65.8661531  97.8148095  59.0963988  65.7412670  97.0137834  58.5874934
  66.5240622  98.3094288  58.6077958  57.4869699  84.1696827  58.2741128
  56.7656285  84.7832795  58.1348602  58.2762955  84.7054592  58.1957774
  67.9296439  95.6157115  60.7243538  66.9826775  95.4962466  60.6521865
  68.2779212  94.7279613  60.8069800  55.6863294  83.7754928  52.4152905
  55.3576000  82.8952307  52.2328011  56.0402664  83.7202597  53.3029294
  64.9342872  95.4109831  56.9247890  64.7867835  94.4826538  57.1055460
  65.7596366  95.4329922  56.4404966  58.8005117  84.0627898  52.7828382
  59.1401189  84.5913819  52.0606991  59.2477237  84.4008304  53.5586949
  68.5376994  96.2338390  58.0112763  69.4623542  96.0281251  57.8737214
  68.3692298  95.9854791  58.9202105  60.7873264  82.5602520  50.9821675
  61.5081626  82.9383772  50.4785392  60.1638568  83.2791396  51.0856653
  64.9304387  83.2647669  51.9180008  65.1468001  84.1472306  51.6168836
  64.4498454  82.8733882  51.1885650  59.6703608  86.2233382  58.4950752
  59.5248189  86.5373685  59.3875034  59.1928812  86.8418282  57.9421651
  61.5299991  83.2135930  58.5431642  61.5161560  82.3177023  58.2063940
  62.2472419  83.2206594  59.1769928  63.3826122  83.6473270  60.5884769
  63.1243900  84.5690341  60.5869100  62.8511162  83.2503705  61.2785233
  68.3272310  96.7524057  53.3674855  68.5009188  96.1870480  52.6148707
  68.8201202  97.5524952  53.1854344  54.1449270  88.7638726  61.4338413
  53.6002738  89.5398534  61.5658688  55.0228620  89.1109531  61.2757535
  60.9336887  82.0950310  53.8119212  61.0552798  81.1666956  54.0110099
  60.6438929  82.1088996  52.8997527  74.1811702  89.5160480  54.9865154
  74.6242848  88.7667805  54.5884278  73.3038212  89.5070616  54.6038886
  69.3147483  96.0690821  50.4671753  70.0098388  96.6897514  50.6859067
  69.6570633  95.2186173  50.7424131  54.9315292  87.8908622  64.3268570
  54.1897028  88.0391258  64.9133201  54.6108036  88.1516888  63.4635320
  71.2138906  93.5190527  51.9959084  71.7390230  93.8577800  51.2708404
  71.1261259  92.5837542  51.8122218  62.8758955  97.4324601  64.1248960
  63.1846081  97.1873747  64.9971660  63.6734437  97.6371239  63.6367830
  62.8979567  99.5862510  56.3554337  62.4584557  99.0938889  57.0487193
  63.6487684  99.0435478  56.1146412  55.3771906  95.7774051  56.3578965
  56.2029926  95.4777823  55.9777608  55.0265958  95.0081674  56.8068754
  60.3453439  95.1300519  58.4276638  59.7233448  94.4671224  58.1278866
  61.0158306  95.1561651  57.7450286  53.5780511  93.6960378  57.3167898
  52.7412419  93.2682552  57.1351900  53.5504156  93.8892821  58.2538690
  70.9032812  94.1523431  67.3010282  70.1128356  94.1347570  66.7614781
  70.6666167  94.6911724  68.0559318  71.0230687  91.0015897  64.6143010
  71.0728692  90.8365904  65.5558533  70.9144611  90.1343156  64.2240891
  59.9066946  93.6804443  51.9035099  60.0555066  94.3639907  51.2501772
  60.7133389  93.6609533  52.4184555  68.3134450  86.9846825  65.9302317
  69.2144312  86.8453290  65.6386315  68.3882424  87.1501280  66.8700494
  72.5248884  93.4212839  64.8585032  72.2333692  93.7842819  65.6948493
  71.9121015  92.7079847  64.6798364  73.7244566  90.9865718  57.3787602
  74.5591458  91.4255522  57.5425162  73.8603695  90.5104372  56.5595848
  70.7736072  88.5445453  63.3265090  71.2490194  88.7373099  62.5183941
  69.8501638  88.6004639  63.0808473  57.6619579  89.7069620  52.9096168
  57.4165621  88.8031950  53.1076378  57.8315493  89.7086771  51.9675646
  56.9315226  85.4397978  50.4082329  56.2384471  85.5142333  49.7522365
  56.6866978  84.6758322  50.9303846  63.4062351  96.1752573  49.3746846
  62.8336318  96.7942760  48.9217318  63.9795145  96.7251935  49.9086768
  69.4737741  85.4211213  61.5593395  70.4255164  85.5209311  61.5805619
  69.3041192  84.6289482  62.0691480  66.6259611  96.4589723  50.5055429
  67.5590284  96.3935285  50.7088304  66.5382824  97.2945990  50.0469961
  69.2547628  95.7755594  47.4659376  69.1761259  95.4415457  48.3595134
  70.0757295  96.2677362  47.4650849  71.9525819  88.6417333  60.6735695
  71.9202139  87.7033334  60.8595379  72.5626443  88.7201370  59.9401520
  63.7909150  87.5113386  46.7162899  64.7368255  87.3819594  46.7851317
  63.4123395  86.7728048  47.1932327  72.1020308  85.4328376  60.7193978
  71.5859356  84.6486833  60.5323907  72.9860256  85.1047093  60.8840498
  69.7631034  79.1769392  56.6789791  69.5655856  78.8684480  57.5633123
  70.3730740  79.9031031  56.8087721  77.7702369  89.7033340  59.8141732
  78.5005757  89.4418628  60.3749435  77.1609314  88.9662062  59.8543800
  75.8517666  87.8441202  60.4116183  75.1250830  87.7097167  59.8032674
  75.4364953  88.1518031  61.2172901  63.6747842  91.5631132  68.1763556
  64.5950852  91.7409731  68.3703602  63.6397425  90.6187177  68.0243255
  61.9752067  85.4363362  46.6517784  61.0683522  85.1396475  46.7280498
  62.2528048  85.1393180  45.7852070  52.8930007  86.7569726  57.1016831
  52.5732792  85.9035034  56.8091205  52.3463436  86.9718304  57.8574798
  56.6709915  89.4732167  60.8186337  56.8895925  90.4049275  60.8374371
  57.0835689  89.1140141  61.6041141  63.5914133  79.9800252  52.8062025
  62.7814861  79.6347337  53.1817272  64.2798550  79.6707796  53.3949637
  65.5204681  79.0578299  54.4286322  66.0735720  79.4773752  55.0876345
  65.7574767  78.1314047  54.4709278  52.7618267  90.3772637  59.0709952
  52.0681739  89.9626590  58.5579907  53.5091258  90.4193174  58.4743371
  68.8983488  81.1678824  53.9364986  68.3182157  81.8263628  53.5543039
  68.6319421  80.3456169  53.5252404  67.3487055  80.5683882  56.1386307
  67.8486833  80.6800416  55.3300626  67.9922662  80.2644935  56.7787115
  54.6755010  90.3090891  56.9475967  54.6525698  90.4078578  55.9957850
  54.9855646  91.1556042  57.2693133  57.3342388  92.3667046  61.0622581
  58.2885641  92.3350988  60.9952513  57.1354911  91.9057670  61.8772807
  57.9241770  90.9368162  63.6293379  58.7434659  91.4312241  63.6528216
  58.1978578  90.0200130  63.6010947  67.6808366  83.3278914  52.9921335
  66.7934221  83.6128565  52.7741529  68.0962355  83.1672678  52.1448611
  71.0322902  83.3525435  56.7075674  71.8083292  83.8421888  56.9800291
  70.3071036  83.7783490  57.1647543  73.4695461  84.0653055  57.7649614
  74.0639952  83.8248791  57.0542923  73.5422045  83.3460185  58.3923151
  55.6892617  97.9086666  58.0792779  55.5547085  97.1487066  57.5130777
  55.2724679  98.6327565  57.6121568  66.8251580  93.0923589  47.0869355
  67.5287430  93.2973592  47.7027010  66.1014228  93.6600351  47.3518438
  67.6549390  88.8433450  53.2071625  67.5984591  89.3002002  52.3679257
  68.2077732  88.0824135  53.0294468  71.4654196  84.6323182  54.0321744
  71.2091130  84.2319818  54.8629952  70.8407064  85.3466976  53.9071883
  75.7766534  87.3719255  56.5393036  75.2166092  87.4412445  57.3124598
  75.1710037  87.1960240  55.8192532  58.8461742  98.8055983  58.2911222
  58.7294127  99.7501415  58.1889912  58.0254189  98.5029544  58.6797021
  68.7338277  93.5306118  49.1367815  69.5683881  93.0987317  48.9545289
  68.5722620  93.3588132  50.0644709  68.3884169  90.0338232  50.5024154
  68.3332973  89.8682503  49.5612598  67.7630224  90.7414264  50.6586344
  53.1776684  85.2706296  64.3285576  53.8235548  84.7605250  64.8172801
  52.9693835  86.0074978  64.9029001  65.7030076  92.3387143  69.8277717
  66.5721236  92.5127796  69.4664352  65.2236828  93.1581560  69.7053446
  61.6980295  79.5346341  50.0809472  61.6858964  80.4788180  50.2377743
  62.5903717  79.3516486  49.7868934  59.8716257  99.4584244  61.5067150
  60.7743503  99.4907855  61.8233645  59.6453627  98.5284695  61.5213486
  61.6269859  98.2115231  58.1677229  60.6765490  98.2117093  58.0541601
  61.9302345  97.4647966  57.6513264  77.3622552 104.0475769  59.2322991
  78.0000962 103.9282517  58.5286331  77.2443395 104.9956613  59.2910944
  74.1712258 104.0003197  59.1684516  73.8330770 103.8844262  58.2805051
  75.0402027 103.5994363  59.1485522  70.0299074 105.8538674  55.1581407
  69.4663939 105.7628611  54.3897695  69.9151469 105.0338578  55.6383900
  74.6532041 105.1538049  65.1270722  74.6420682 104.7590847  64.2551225
  74.8152681 104.4204122  65.7204493  67.5763506 107.3489865  57.9965627
  68.3684798 107.0080690  57.5811927  67.8160156 107.4584841  58.9167781
  75.6098633 109.5209642  50.4695872  74.9586613 110.1063722  50.0829886
  76.4042996 110.0515836  50.5290909  69.5354260 106.6098779  50.8683006
  70.3085136 106.0627766  50.7295882  69.8879659 107.4743028  51.0797468
  71.3739303 107.9375161  64.0749906  71.0829169 108.8420792  63.9596572
  72.0096287 107.9791689  64.7893975  72.2995509 105.3152010  60.6651265
  72.8959082 105.0908032  59.9508228  72.3570481 104.5736755  61.2676713
  71.8720538 102.7691445  48.5001456  72.1246058 102.2472966  47.7384919
  70.9345097 102.6057590  48.6028140  76.9163821 101.7727223  56.3076199
  77.7026910 101.3546646  55.9566616  77.1802525 102.6773315  56.4757848
  77.0873898 107.2100074  51.0064856  76.4519731 107.2834700  51.7185761
  76.7571304 107.7993672  50.3283935  82.3172248 101.7102456  57.2109178
  83.0497420 101.1401673  57.4447007  81.5611603 101.3224057  57.6515684
  71.5916827 104.6719551  50.7025831  71.4753085 103.9964454  51.3706915
  71.7019086 104.1851925  49.8857984  73.9348367 104.1329698  54.4072520
  73.5706575 103.6060319  55.1185442  74.7915483 103.7428167  54.2339006
  79.8397668  95.4224031  61.6703787  79.5080993  96.2919441  61.4465002
  79.2443281  95.1060315  62.3497817  73.5753854  99.1619598  49.4033869
  73.7428257 100.0299834  49.7704340  73.3851024  99.3246879  48.4795158
  76.3329188 107.6236577  61.0699699  76.0329911 108.5261615  60.9615506
  75.9880247 107.3568760  61.9220852  69.7841669 104.0750373  57.1036404
  68.8592166 103.9426587  57.3114095  70.0326082 104.8544593  57.6006346
  79.7326331 100.1419117  58.7497137  78.8243209 100.0734525  58.4555898
  79.6813927 100.6191062  59.5778962  73.5543075 101.6177255  50.3880536
  73.4342701 102.0634306  51.2266016  72.8595664 101.9662573  49.8294074
  67.1450480 103.7183647  57.9380193  67.2742861 103.9718126  58.8519604
  66.4647931 104.3111355  57.6184848  71.3149967 114.3880897  54.0370667
  71.2373997 115.3388722  54.1159148  70.7111611 114.0426769  54.6945593
  73.8067197 101.5608762  66.6932034  73.0300531 102.1202682  66.6834898
  74.4457760 102.0465545  67.2146904  81.5987978  98.3435555  60.5275011
  80.9562358  98.6368088  59.8814805  81.0942906  98.2288475  61.3328207
  79.2528141 102.0898728  51.2160870  80.1645998 102.3226115  51.0408567
  78.7437789 102.6735772  50.6535948  72.0613569 104.3694216  66.2550001
  72.8028254 104.9079260  65.9784824  71.3550555 104.9960504  66.4121553
  77.5368909 106.5123356  64.8522162  77.9452265 106.0705767  64.1076795
  76.8146171 105.9375984  65.1056355  73.8899979 101.4495963  62.2255719
  74.7361174 101.8735376  62.3690368  73.8298617 100.7929587  62.9194282
  77.8597724 107.0724547  58.6074451  77.2306586 107.2370261  57.9050519
  77.4723386 107.4866156  59.3785415  81.7386956 108.0078985  55.9618815
  81.0537994 108.3877886  55.4115848  81.8230805 108.6174311  56.6950763
  77.0399425  99.1100331  63.8836893  76.7960356  99.8642392  63.3471169
  77.3159355  99.4885679  64.7184140  78.9937887 105.6538944  62.5614159
  79.2054783 106.2970704  61.8848540  78.9467636 104.8201260  62.0936089
  76.5964116  98.2656764  59.4650731  75.7348595  98.5638018  59.7567468
  76.6226551  98.4827163  58.5331763  73.4125686 106.8098955  55.8724536
  73.8764031 107.0886658  55.0829159  73.1482484 105.9082399  55.6897627
  70.3049767 106.3570436  58.8104300  70.8751124 106.7857705  58.1721784
  70.8957879 106.0753021  59.5088485  72.3494572 102.9322107  52.6814101
  73.0518615 103.3843151  53.1488028  72.0175200 102.2905926  53.3093995
  70.7974933 101.5233864  67.0565311  70.1673594 102.2050145  67.2900708
  70.6911021 101.4116945  66.1118449  66.0919906 101.1905660  57.9831235
  65.3018960 101.4463188  57.5071346  66.5831153 102.0053998  58.0883276
  80.1083715 108.5310899  60.7336516  80.9301159 108.1291086  60.4519197
  80.1046118 108.4279133  61.6852632  68.0434651 101.5550239  54.9414712
  67.2465814 101.6668933  55.4598207  67.8160243 101.8936891  54.0755602
  73.8740319 108.0794942  62.8897226  73.9384751 108.5415350  63.7255398
  73.1651243 107.4492307  63.0179536  64.3757609 101.4436150  60.4146226
  64.6265647 102.3283160  60.6803802  64.9117157 101.2640752  59.6421318
  88.1989708 104.8749648  57.0821487  87.4453417 104.3057046  56.9265492
  88.3337249 104.8412312  58.0292122  73.5888336 109.7463050  52.7576207
  73.4534011 110.5914586  53.1861055  74.1298149 109.9482327  51.9942140
  70.0755676  95.8254630  69.4190562  69.6822622  95.2720828  70.0938206
  70.8921816  96.1365208  69.8097079  67.0417734 107.2638488  53.3304132
  67.5542254 108.0581738  53.4809696  67.6940447 106.5664778  53.2637733
  68.8512618 110.3804244  55.4126885  69.0279247 111.3022209  55.2247869
  69.6469452 110.0662663  55.8421265  72.9923637  97.2412509  67.0110818
  73.7333350  97.8419662  66.9315281  73.2241560  96.4990147  66.4528861
  68.1364975 102.4268876  65.2889048  68.0218490 101.5254133  65.5896147
  67.2809493 102.6732573  64.9373865  75.2156813 110.3686616  66.8876549
  74.7720667 109.5822995  66.5697453  75.8774026 110.5565767  66.2220440
  69.9743934 111.8982418  61.4137227  70.5251359 111.7699481  60.6414221
  69.1355410 112.1977307  61.0632120  77.3138051 110.6489416  64.9157950
  77.2956526 111.4698297  64.4238219  78.2357971 110.5243491  65.1408091
  73.7711105 108.1633546  65.7581458  74.3039442 107.4021834  65.5280766
  73.2425186 107.8707198  66.5005613  76.9380800  93.2693612  61.2875100
  76.5945069  94.1595253  61.2114211  77.3059763  93.0795269  60.4244685
  65.0066651 105.5927142  54.1063702  65.8441873 106.0024151  53.8897410
  65.1844918 104.6526584  54.0763896  76.9031083 103.2602223  49.7947535
  76.3877706 104.0306827  50.0335923  76.6308391 102.5867359  50.4180597
  74.4878194  98.1051924  54.8532774  73.6319790  97.7158774  54.6738412
  74.9005145  98.1843884  53.9932559  76.0177340  95.6398267  59.2524333
  75.5142136  95.6028402  58.4392139  76.3107947  96.5491010  59.3120990
  72.2620226  95.7236997  58.2590515  73.1273223  95.5279805  57.8996405
  72.3297735  95.4947348  59.1859872  81.8765357 106.0134577  51.7300709
  81.0994800 105.6745737  51.2855871  82.5556838 106.0187201  51.0555674
  76.6917386 101.1329315  51.6207316  76.3867521 101.4475464  52.4717460
  77.6447828 101.2110735  51.6634649  75.1363818 107.2919538  53.2700270
  74.6085179 106.5572298  52.9573508  74.6351320 108.0694215  53.0240239
  80.1156664 105.4868559  58.3867317  79.4580338 106.1767820  58.4747445
  80.9197063 105.8764991  58.7301303  69.8682545  97.9539205  55.6306882
  70.4426297  97.7314386  54.8980075  70.4553528  98.0227899  56.3835483
  78.9262122 103.8412931  56.4371258  79.4394004 104.4742923  56.9392968
  79.5763346 103.2414127  56.0714618  70.1952132  99.9843666  49.6502767
  69.3589445 100.3218352  49.9712042  70.0556902  99.8492645  48.7129904
  72.1705213  94.8280453  54.3581951  71.5169625  94.5129471  53.7338566
  72.1285687  94.2056194  55.0841774  73.2816418 105.1099748  46.2735243
  72.3743480 104.8789002  46.4726392  73.7787450 104.3137368  46.4609225
  76.1884497 113.8197256  49.1931930  75.5146195 114.1228952  49.8016887
  76.5750319 114.6226336  48.8437387  75.4042953 101.3162387  58.6829599
  74.4865515 101.5377334  58.5251287  75.8203097 101.3908697  57.8241306
  76.1878001 102.7153803  53.8132279  76.9349820 103.2275200  53.5039401
  76.4569591 102.3937855  54.6736673  74.4604651 105.2112343  50.7959234
  73.5515871 104.9271376  50.8931703  74.4899735 105.6311422  49.9362540
  79.6923919 108.8218933  54.5650401  79.2386246 107.9809843  54.6215592
  79.0617885 109.4580331  54.9025181  78.6356838  99.7510919  55.7951069
  77.8979595  99.2388305  56.1261311  78.8883612  99.3111300  54.9834345
  78.1356858 110.6595430  55.5000219  78.4279832 111.2200487  54.7812585
  78.6455478 110.9523991  56.2553378  78.7368466  92.5287171  56.3892838
  79.0427342  91.6684534  56.1018753  79.4621070  93.1204791  56.1891832
  65.0292822 102.9317857  54.7774436  64.8317221 102.3387218  54.0525502
  64.4739486 102.6270068  55.4950375  73.0089545 102.8240964  56.8969029
  73.0638155 101.8714800  56.8211505  72.1980747 102.9800403  57.3810327
  74.1580739 106.7521087  48.1347312  73.7200169 106.0356946  47.6752949
  74.8991180 106.9797202  47.5732404  70.9481905 101.4418024  54.6559408
  70.1349771 101.7412194  55.0624600  71.4440899 101.0473712  55.3733890
  73.0990483 111.4375781  56.5893672  73.0566662 111.6636627  55.6602204
  74.0153182 111.2039155  56.7379474  76.5456117 101.9059848  63.4874302
  76.9005505 102.1331321  64.3468767  77.1928248 102.2378225  62.8651557
  82.2753854 105.0278284  54.1923631  82.1371752 105.2179880  53.2644820
  81.9190073 105.7897667  54.6491682  70.4395980  99.0136379  60.2720643
  71.0795359  98.8725138  59.5743606  69.6073511  98.7270893  59.8959245
  82.3023233 107.0954811  59.2034902  82.7359740 107.0030100  60.0517956
  83.0154814 107.0712312  58.5654918  71.2156284 108.3138810  56.3855635
  72.0096882 107.8189130  56.1838210  70.5047976 107.7856673  56.0223341
  76.0351128 110.6956905  60.7368003  76.0888151 111.2647841  61.5045719
  75.1665910 110.8658790  60.3722040  67.5239047 102.4581891  52.4615388
  66.5936635 102.3966347  52.6785350  67.6196519 101.9357844  51.6652029
  67.4424596  98.9836704  55.0493630  67.7031414  99.8982037  54.9402790
  68.2641769  98.5161147  55.1990242  68.9149522 100.3974461  62.2192454
  69.5872575 100.1891824  61.5705103  68.0879308 100.1996547  61.7797686
  83.1638783 107.1378512  61.7367788  83.3574673 108.0424322  61.9827063
  83.0639401 106.6785931  62.5706373  74.8175094  97.0236402  64.2358115
  74.1703009  97.7226352  64.1422591  75.5876109  97.4572546  64.6034363
  78.2253892 107.2885254  67.3108668  78.0739398 107.0595806  66.3938752
  78.2158571 108.2455856  67.3240013  74.9939228 104.8617167  62.2954935
  75.9231288 105.0128327  62.1223902  74.5730258 104.9501188  61.4403581
  73.7927560 108.8867832  60.0653472  73.6538646 108.5186616  60.9379410
  73.0042156 109.4015471  59.8937430  74.3875712 113.9876928  51.4079009
  74.5627468 113.5164971  52.2224631  73.7008500 114.6142694  51.6360270
  75.3432775 108.2649434  57.4542310  75.0082608 108.2250204  58.3499960
  74.8436721 107.5994150  56.9812720  69.3177019 103.6717064  62.9794891
  69.1796817 102.9397303  63.5806430  70.2281942 103.5825964  62.6979079
  78.2791967 105.6105469  47.7279370  77.6621137 104.8852297  47.6312422
  77.8108455 106.3714829  47.3846444  71.9459320 103.3837024  62.4678571
  72.6558938 102.7430216  62.4265189  71.9028628 103.6349919  63.3904752
  79.9346098 110.3204377  65.3885150  79.8758644 109.6363597  64.7215733
  80.3365617 111.0623367  64.9365776  70.6588254 100.3702242  64.2874210
  70.1225611  99.9192980  64.9395807  70.0704962 100.5048150  63.5444675
  68.9536797 117.1366291  58.1818869  69.1933395 117.7684815  58.8597888
  68.1105994 116.7854331  58.4684228  70.0690513  99.8290893  46.8500674
  69.1919979  99.7079694  46.4862921  70.5448266  99.0376971  46.5979563
  79.9363506 108.2843961  63.6199130  79.0490284 107.9469883  63.7425529
  80.5062057 107.5526992  63.8567895  61.5892653 104.6168053  56.9442181
  62.2763693 104.3029783  56.3563196  61.4340781 105.5209417  56.6709433
  66.3927375  99.5058249  61.3727205  66.3085564  98.8983919  60.6377615
  65.5710081  99.9967268  61.3736701  73.4664659 112.9445413  60.5860373
  73.3934830 113.7500385  61.0979678  73.0242052 113.1437379  59.7608394
  73.2554439 112.1817183  54.0963194  72.4721961 112.7238864  54.1901419
  73.9547184 112.6991163  54.4957436  76.5651089  97.9911813  56.7397400
  77.0619788  97.2381775  56.4198470  75.7938070  98.0276129  56.1740609
  84.4180846 103.6952178  58.3815691  84.4070722 104.5776894  58.0109624
  83.5498226 103.3423729  58.1870228  75.9263343 112.8432247  62.7418532
  76.6391315 113.4779712  62.6694433  75.4353371 112.9396113  61.9258533
  77.6480869 106.7483500  54.3135823  76.7137148 106.8684962  54.1440528
  77.8257538 105.8455967  54.0495833  73.1486057 100.1329196  56.4669084
  72.7783845  99.5800236  57.1549990  73.6445150  99.5287329  55.9144085
  81.0353421 102.5900819  54.8485857  81.5013873 103.4228811  54.7746160
  81.4860921 102.1245801  55.5531116  70.9775256 110.5926691  63.5624102
  71.6784716 111.2263174  63.7153497  70.5070371 110.9341422  62.8019742
  79.1029652 108.9344641  51.8472009  79.3789496 108.8201235  52.7565884
  78.2334151 108.5362125  51.8084183  79.0070084  94.9581406  58.8876759
  78.0933163  95.1885633  59.0558966  79.4363185  95.0419850  59.7390791
  78.7776542 103.1471298  61.3876653  78.1247992 103.3947206  60.7329106
  79.1556922 102.3335436  61.0539130  75.7383716 113.1830991  55.4904823
  75.9206110 112.3652647  55.9532575  76.5616702 113.3998684  55.0529713
  76.0725881 112.1099177  52.7519872  76.6013648 111.5991631  52.1390034
  76.3354101 111.7941707  53.6165405  74.8264115 103.8891109  67.8742690
  74.1504752 103.7885239  68.5445065  75.6491749 103.7330323  68.3378687
  66.5742974 110.1263046  60.4955205  67.1596411 109.3806734  60.6283109
  66.3767813 110.4367003  61.3791869  69.4281629 113.1614293  55.5117647
  68.7592005 113.6460421  55.0281688  69.2894499 113.4083514  56.4261026
  61.1660629 102.6968646  59.2159648  61.2044728 102.1632237  60.0096766
  60.6600922 102.1703852  58.5970625  73.5686898 115.1958037  62.1100306
  74.1205206 115.3589658  62.8749391  73.9093091 115.7862475  61.4380331
  68.5451391  97.5433187  62.7122191  68.6092718  98.4048017  62.2999588
  68.4818511  96.9307188  61.9794549  68.0203664  99.6156319  66.3595225
  68.6475702  99.2333396  66.9732749  67.1631583  99.3970521  66.7250917
  78.4197772 110.0219294  67.9648960  78.9637676 110.6349253  67.4703915
  77.8384617 110.5798873  68.4815973  64.7969206 101.4232748  52.2913580
  65.0922648 100.5143427  52.2380633  63.8957242 101.4020488  51.9694582
  76.7055285 113.1440012  59.0963988  76.5806425 112.3429752  58.5874934
  77.3634376 113.6386206  58.6077958  68.3263453  99.4988745  58.2741128
  67.6050039 100.1124712  58.1348602  69.1156709 100.0346510  58.1957774
  78.7690194 110.9449032  60.7243538  77.8220529 110.8254384  60.6521865
  79.1172967 110.0571530  60.8069800  71.1289767  96.8343171  64.5481780
  71.6524169  97.0805468  65.3108089  70.9102100  97.6663206  64.1284917
  66.5257048  99.1046846  52.4152905  66.1969754  98.2244225  52.2328011
  66.8796419  99.0494515  53.3029294  75.7736627 110.7401749  56.9247890
  75.6261589 109.8118456  57.1055460  76.5990120 110.7621839  56.4404966
  69.6398871  99.3919816  52.7828382  69.9794944  99.9205737  52.0606991
  70.0870992  99.7300222  53.5586949  79.3770749 111.5630307  58.0112763
  80.3017296 111.3573169  57.8737214  79.2086052 111.3146708  58.9202105
  72.3342312  97.7756866  62.2331451  71.9939132  96.9764679  62.6352130
  71.6281318  98.0758577  61.6608284  72.9858784  94.8606179  60.6858774
  73.8084853  94.3866657  60.5637664  73.2296847  95.6396663  61.1857460
  71.6267018  97.8894437  50.9821675  72.3475381  98.2675690  50.4785392
  71.0032322  98.6083314  51.0856653  75.7698141  98.5939586  51.9180008
  75.9861756  99.4764224  51.6168836  75.2892208  98.2025800  51.1885650
  70.5097363 101.5525299  58.4950752  70.3641943 101.8665603  59.3875034
  70.0322566 102.1710200  57.9421651  72.3693745  98.5427847  58.5431642
  72.3555314  97.6468941  58.2063940  73.0866174  98.5498511  59.1769928
  74.2219876  98.9765188  60.5884769  73.9637654  99.8982258  60.5869100
  73.6904917  98.5795622  61.2785233  79.1666065 112.0815975  53.3674855
  79.3402942 111.5162397  52.6148707  79.6594956 112.8816870  53.1854344
  64.9843025 104.0930644  61.4338413  64.4396493 104.8690452  61.5658688
  65.8622375 104.4401448  61.2757535  71.7730641  97.4242228  53.8119212
  71.8946553  96.4958874  54.0110099  71.4832684  97.4380914  52.8997527
  74.6421832  95.1097138  56.9485932  74.6643529  95.1736471  55.9937911
  75.0589891  94.2701647  57.1426438  85.0205456 104.8452398  54.9865154
  85.4636602 104.0959723  54.5884278  84.1431966 104.8362534  54.6038886
  80.1541237 111.3982739  50.4671753  80.8492142 112.0189432  50.6859067
  80.4964388 110.5478090  50.7424131  65.7709047 103.2200540  64.3268570
  65.0290783 103.3683175  64.9133201  65.4501791 103.4808806  63.4635320
  82.0532661 108.8482445  51.9959084  82.5783985 109.1869717  51.2708404
  81.9655013 107.9129460  51.8122218  73.7152709 112.7616518  64.1248960
  74.0239836 112.5165665  64.9971660  74.5128191 112.9663157  63.6367830
  73.7373321 114.9154428  56.3554337  73.2978312 114.4230807  57.0487193
  74.4881438 114.3727396  56.1146412  66.2165660 111.1065969  56.3578965
  67.0423680 110.8069741  55.9777608  65.8659712 110.3373591  56.8068754
  71.1847193 110.4592437  58.4276638  70.5627203 109.7963142  58.1278866
  71.8552060 110.4853569  57.7450286  64.4174265 109.0252295  57.3167898
  63.5806174 108.5974470  57.1351900  64.3897911 109.2184739  58.2538690
  71.2571721  98.9374225  68.0209144  71.3059876  99.8136348  67.6386914
  71.7994235  98.3951618  67.4480788  81.7426567 109.4815348  67.3010282
  80.9522110 109.4639487  66.7614781  81.5059921 110.0203642  68.0559318
  81.8624442 106.3307815  64.6143010  81.9122447 106.1657822  65.5558533
  81.7538365 105.4635074  64.2240891  70.7460700 109.0096360  51.9035099
  70.8948821 109.6931825  51.2501772  71.5527144 108.9901450  52.4184555
  79.1528204 102.3138743  65.9302317  80.0538067 102.1745208  65.6386315
  79.2276179 102.4793198  66.8700494  73.4871009  99.6905597  64.7755503
  72.6174319  99.9839164  64.5038092  73.7230490 100.2746042  65.4962767
  83.3642638 108.7504756  64.8585032  83.0727447 109.1134737  65.6948493
  82.7514770 108.0371765  64.6798364  84.5638321 106.3157636  57.3787602
  85.3985212 106.7547440  57.5425162  84.6997450 105.8396289  56.5595848
  81.6129827 103.8737371  63.3265090  82.0883948 104.0665017  62.5183941
  80.6895392 103.9296557  63.0808473  68.5013333 105.0361538  52.9096168
  68.2559375 104.1323868  53.1076378  68.6709248 105.0378688  51.9675646
  76.1910043  95.9085214  62.2920924  76.7091987  96.6446241  61.9667412
  75.8365176  96.2149208  63.1267683  67.7708981 100.7689896  50.4082329
  67.0778226 100.8434251  49.7522365  67.5260733 100.0050239  50.9303846
  76.4422637  92.3285497  57.8121820  76.7224391  91.6608686  58.4382247
  77.2273244  92.5214593  57.2996484  74.2456106 111.5044491  49.3746846
  73.6730073 112.1234678  48.9217318  74.8188900 112.0543853  49.9086768
  80.3131496 100.7503131  61.5593395  81.2648919 100.8501229  61.5805619
  80.1434946  99.9581399  62.0691480  78.3345875  97.8358714  61.7452796
  77.7395807  98.1163727  61.0499285  78.0495572  98.3252615  62.5169537
  77.4653366 111.7881641  50.5055429  78.3984039 111.7227203  50.7088304
  77.3776578 112.6237908  50.0469961  80.0941382 111.1047511  47.4659376
  80.0155014 110.7707375  48.3595134  80.9151049 111.5969279  47.4650849
  82.7919574 103.9709251  60.6735695  82.7595894 103.0325251  60.8595379
  83.4020197 104.0493287  59.9401520  74.6302904 102.8405304  46.7162899
  75.5762009 102.7111512  46.7851317  74.2517149 102.1019966  47.1932327
  82.9414062 100.7620294  60.7193978  82.4253111  99.9778751  60.5323907
  83.8254011 100.4339011  60.8840498  80.6024789  94.5061310  56.6789791
  80.4049610  94.1976398  57.5633123  81.2124494  95.2322949  56.8087721
  88.6096123 105.0325257  59.8141732  89.3399512 104.7710546  60.3749435
  88.0003069 104.2953979  59.8543800  86.6911420 103.1733120  60.4116183
  85.9644584 103.0389085  59.8032674  86.2758707 103.4809949  61.2172901
  74.5141597 106.8923050  68.1763556  75.4344606 107.0701649  68.3703602
  74.4791180 105.9479095  68.0243255  72.8145822 100.7655280  46.6517784
  71.9077277 100.4688393  46.7280498  73.0921803 100.4685098  45.7852070
  63.7323762 102.0861643  57.1016831  63.4126546 101.2326952  56.8091205
  63.1857190 102.3010222  57.8574798  67.5103669 104.8024084  60.8186337
  67.7289679 105.7341192  60.8374371  67.9229443 104.4432059  61.6041141
  74.4307887  95.3092170  52.8062025  73.6208616  94.9639255  53.1817272
  75.1192304  94.9999713  53.3949637  76.3598436  94.3870217  54.4286322
  76.9129474  94.8065670  55.0876345  76.5968522  93.4605965  54.4709278
  72.3831535 100.3757290  70.2089086  72.2828262 101.3251647  70.1401177
  72.1653077 100.0475529  69.3365156  71.5844606  97.6242215  46.7929763
  72.4463770  97.9497114  47.0525581  71.7694950  96.8373711  46.2802829
  63.6012022 105.7064555  59.0709952  62.9075493 105.2918508  58.5579907
  64.3485013 105.7485091  58.4743371  79.7377243  96.4970742  53.9364986
  79.1575912  97.1555546  53.5543039  79.4713175  95.6748086  53.5252404
  78.1880809  95.8975799  56.1386307  78.6880587  96.0092334  55.3300626
  78.8316417  95.5936852  56.7787115  72.2462805 103.8054429  69.0254148
  71.7629887 104.6054789  69.2318037  72.3323744 103.8162374  68.0721592
  65.5148764 105.6382809  56.9475967  65.4919453 105.7370496  55.9957850
  65.8249401 106.4847959  57.2693133  68.1736142 107.6958964  61.0622581
  69.1279396 107.6642906  60.9952513  67.9748666 107.2349587  61.8772807
  68.7635524 106.2660080  63.6293379  69.5828413 106.7604158  63.6528216
  69.0372332 105.3492048  63.6010947  78.5202121  98.6570832  52.9921335
  77.6327976  98.9420483  52.7741529  78.9356110  98.4964595  52.1448611
  81.8716657  98.6817353  56.7075674  82.6477047  99.1713805  56.9800291
  81.1464791  99.1075407  57.1647543  84.3089215  99.3944972  57.7649614
  84.9033706  99.1540708  57.0542923  84.3815799  98.6752103  58.3923151
  66.5286371 113.2378583  58.0792779  66.3940839 112.4778984  57.5130777
  66.1118433 113.9619483  57.6121568  77.6645334 108.4215507  47.0869355
  78.3681184 108.6265509  47.7027010  76.9407983 108.9892269  47.3518438
  78.4943144 104.1725368  53.2071625  78.4378346 104.6293919  52.3679257
  79.0471487 103.4116053  53.0294468  82.3047950  99.9615100  54.0321744
  82.0484885  99.5611736  54.8629952  81.6800818 100.6758894  53.9071883
  86.6160288 102.7011173  56.5393036  86.0559846 102.7704362  57.3124598
  86.0103792 102.5252158  55.8192532  69.6855497 114.1347900  58.2911222
  69.5687881 115.0793333  58.1889912  68.8647943 113.8321462  58.6797021
  79.5732032 108.8598036  49.1367815  80.4077635 108.4279234  48.9545289
  79.4116374 108.6880050  50.0644709  79.2277924 105.3630149  50.5024154
  79.1726727 105.1974421  49.5612598  78.6023979 106.0706182  50.6586344
  64.0170439 100.5998214  64.3285576  64.6629302 100.0897168  64.8172801
  63.8087590 101.3366895  64.9029001  76.5423831 107.6679061  69.8277717
  77.4114991 107.8419713  69.4664352  76.0630582 108.4873478  69.7053446
  72.5374049  94.8638258  50.0809472  72.5252719  95.8080098  50.2377743
  73.4297471  94.6808404  49.7868934  70.7110011 114.7876162  61.5067150
  71.6137258 114.8199772  61.8233645  70.4847381 113.8576613  61.5213486
  72.4663613 113.5407149  58.1677229  71.5159244 113.5409010  58.0541601
  72.7696099 112.7939883  57.6513264  76.3526169  91.4581035  54.3355409
  75.5858564  90.9039522  54.4812091  76.7636874  91.5302904  55.1969561
  68.3567930  97.7465831  68.4260590  69.2199391  97.3902636  68.6363915
  67.7833340  97.4079726  69.1135995  85.0106013 119.3295115  59.1684516
  84.6724524 119.2136180  58.2805051  85.8795781 118.9286280  59.1485522
  80.8692829 121.1830592  55.1581407  80.3057694 121.0920528  54.3897695
  80.7545224 120.3630496  55.6383900  85.4925796 120.4829967  65.1270722
  85.4814437 120.0882765  64.2551225  85.6546435 119.7496039  65.7204493
  78.4157261 122.6781783  57.9965627  79.2078552 122.3372608  57.5811927
  78.6553911 122.7876758  58.9167781  80.3748014 121.9390696  50.8683006
  81.1478890 121.3919683  50.7295882  80.7273413 122.8034946  51.0797468
  83.1389264 120.6443927  60.6651265  83.7352836 120.4199950  59.9508228
  83.1964235 119.9028673  61.2676713  82.7114292 118.0983363  48.5001456
  82.9639813 117.5764884  47.7384919  81.7738851 117.9349508  48.6028140
  87.7557575 117.1019141  56.3076199  88.5420664 116.6838564  55.9566616
  88.0196279 118.0065233  56.4757848  82.4310581 120.0011468  50.7025831
  82.3146839 119.3256372  51.3706915  82.5412841 119.5143842  49.8857984
  84.7742122 119.4621616  54.4072520  84.4100329 118.9352237  55.1185442
  85.6309238 119.0720085  54.2339006  90.6791423 110.7515948  61.6703787
  90.3474747 111.6211359  61.4465002  90.0837036 110.4352232  62.3497817
  84.4147609 114.4911515  49.4033869  84.5822011 115.3591752  49.7704340
  84.2244778 114.6538797  48.4795158  80.6235424 119.4042291  57.1036404
  79.6985920 119.2718505  57.3114095  80.8719837 120.1836510  57.6006346
  90.5720086 115.4711034  58.7497137  89.6636963 115.4026443  58.4555898
  90.5207682 115.9482979  59.5778962  84.3936830 116.9469173  50.3880536
  84.2736455 117.3926224  51.2266016  83.6989418 117.2954490  49.8294074
  77.9844235 119.0475565  57.9380193  78.1136616 119.3010044  58.8519604
  77.3041686 119.6403273  57.6184848  84.6460952 116.8900680  66.6932034
  83.8694286 117.4494600  66.6834898  85.2851515 117.3757463  67.2146904
  92.4381732 113.6727473  60.5275011  91.7956113 113.9660006  59.8814805
  91.9336661 113.5580393  61.3328207  82.9007324 119.6986133  66.2550001
  83.6422008 120.2371177  65.9784824  82.1944309 120.3252422  66.4121553
  84.7293734 116.7787881  62.2255719  85.5754929 117.2027294  62.3690368
  84.6692371 116.1221505  62.9194282  87.8793179 114.4392249  63.8836893
  87.6354111 115.1934309  63.3471169  88.1553110 114.8177597  64.7184140
  87.4357871 113.5948682  59.4650731  86.5742350 113.8929936  59.7567468
  87.4620305 113.8119081  58.5331763  81.1443521 121.6862354  58.8104300
  81.7144878 122.1149622  58.1721784  81.7351633 121.4044939  59.5088485
  83.1888326 118.2614025  52.6814101  83.8912370 118.7135069  53.1488028
  82.8568955 117.6197844  53.3093995  81.6368688 116.8525781  67.0565311
  81.0067348 117.5342062  67.2900708  81.5304776 116.7408863  66.1118449
  76.9313660 116.5197578  57.9831235  76.1412714 116.7755106  57.5071346
  77.4224908 117.3345915  58.0883276  78.8828406 116.8842157  54.9414712
  78.0859569 116.9960851  55.4598207  78.6553998 117.2228809  54.0755602
  75.2151363 116.7728068  60.4146226  75.4659402 117.6575078  60.6803802
  75.7510912 116.5932670  59.6421318  80.9149430 111.1546547  69.4190562
  80.5216376 110.6012746  70.0938206  81.7315571 111.4657126  69.8097079
  77.8811488 122.5930406  53.3304132  78.3936009 123.3873656  53.4809696
  78.5334201 121.8956696  53.2637733  83.8317391 112.5704426  67.0110818
  84.5727105 113.1711580  66.9315281  84.0635314 111.8282064  66.4528861
  78.9758729 117.7560794  65.2889048  78.8612245 116.8546051  65.5896147
  78.1203247 118.0024490  64.9373865  87.7774554 108.5985529  61.2875100
  87.4338824 109.4887171  61.2114211  88.1453517 108.4087187  60.4244685
  75.8460405 120.9219060  54.1063702  76.6835627 121.3316068  53.8897410
  76.0238673 119.9818502  54.0763896  85.3271948 113.4343841  54.8532774
  84.4713544 113.0450692  54.6738412  85.7398900 113.5135802  53.9932559
  86.8571095 110.9690185  59.2524333  86.3535890 110.9320320  58.4392139
  87.1501702 111.8782927  59.3120990  83.1013981 111.0528914  58.2590515
  83.9666977 110.8571723  57.8996405  83.1691490 110.8239266  59.1859872
  87.5311140 116.4621233  51.6207316  87.2261276 116.7767382  52.4717460
  88.4841582 116.5402652  51.6634649  80.7076300 113.2831122  55.6306882
  81.2820052 113.0606304  54.8980075  81.2947282 113.3519817  56.3835483
  81.0345887 115.3135583  49.6502767  80.1983199 115.6510270  49.9712042
  80.8950656 115.1784563  48.7129904  83.0098967 110.1572371  54.3581951
  82.3563380 109.8421388  53.7338566  82.9679442 109.5348112  55.0841774
  84.1210172 120.4391666  46.2735243  83.2137234 120.2080920  46.4726392
  84.6181204 119.6429285  46.4609225  86.2436708 116.6454305  58.6829599
  85.3259269 116.8669252  58.5251287  86.6596851 116.7200615  57.8241306
  87.0271756 118.0445720  53.8132279  87.7743575 118.5567118  53.5039401
  87.2963345 117.7229773  54.6736673  89.4750593 115.0802837  55.7951069
  88.7373350 114.5680223  56.1261311  89.7277366 114.6403218  54.9834345
  89.5762220 107.8579089  56.3892838  89.8821097 106.9976452  56.1018753
  90.3014825 108.4496709  56.1891832  75.8686576 118.2609775  54.7774436
  75.6710976 117.6679136  54.0525502  75.3133240 117.9561985  55.4950375
  83.8483300 118.1532882  56.8969029  83.9031910 117.2006718  56.8211505
  83.0374502 118.3092321  57.3810327  81.7875660 116.7709941  54.6559408
  80.9743525 117.0704112  55.0624600  82.2834654 116.3765630  55.3733890
  87.3849871 117.2351766  63.4874302  87.7399259 117.4623239  64.3468767
  88.0322003 117.5670143  62.8651557  81.2789734 114.3428297  60.2720643
  81.9189114 114.2017056  59.5743606  80.4467265 114.0562810  59.8959245
  78.3632802 117.7873809  52.4615388  77.4330390 117.7258265  52.6785350
  78.4590274 117.2649762  51.6652029  78.2818351 114.3128622  55.0493630
  78.5425168 115.2273955  54.9402790  79.1035523 113.8453064  55.1990242
  79.7543276 115.7266379  62.2192454  80.4266330 115.5183741  61.5705103
  78.9273063 115.5288465  61.7797686  85.6568848 112.3528320  64.2358115
  85.0096763 113.0518270  64.1422591  86.4269864 112.7864464  64.6034363
  80.1570773 119.0008982  62.9794891  80.0190571 118.2689221  63.5806430
  81.0675697 118.9117882  62.6979079  82.7853074 118.7128941  62.4678571
  83.4952693 118.0722134  62.4265189  82.7422382 118.9641836  63.3904752
  81.4982008 115.6994159  64.2874210  80.9619365 115.2484898  64.9395807
  80.9098717 115.8340068  63.5444675  80.9084267 115.1582811  46.8500674
  80.0313733 115.0371611  46.4862921  81.3842020 114.3668889  46.5979563
  72.4286407 119.9459970  56.9442181  73.1157447 119.6321700  56.3563196
  72.2734536 120.8501335  56.6709433  77.2321129 114.8350167  61.3727205
  77.1479318 114.2275836  60.6377615  76.4103836 115.3259185  61.3736701
  87.4044843 113.3203730  56.7397400  87.9013543 112.5673693  56.4198470
  86.6331825 113.3568047  56.1740609  83.9879812 115.4621113  56.4669084
  83.6177599 114.9092154  57.1549990  84.4838904 114.8579247  55.9144085
  89.8463838 110.2873324  58.8876759  88.9326918 110.5177551  59.0558966
  90.2756939 110.3711768  59.7390791  85.6657870 119.2183027  67.8742690
  84.9898507 119.1177156  68.5445065  86.4885503 119.0622241  68.3378687
  77.4136729 125.4554964  60.4955205  77.9990165 124.7098651  60.6283109
  77.2161567 125.7658920  61.3791869  72.0054383 118.0260564  59.2159648
  72.0438483 117.4924154  60.0096766  71.4994676 117.4995769  58.5970625
  79.3845146 112.8725104  62.7122191  79.4486472 113.7339935  62.2999588
  79.3212266 112.2599106  61.9794549  78.8597418 114.9448237  66.3595225
  79.4869457 114.5625314  66.9732749  78.0025337 114.7262439  66.7250917
  75.6362961 116.7524666  52.2913580  75.9316402 115.8435344  52.2380633
  74.7350997 116.7312405  51.9694582  79.1657208 114.8280662  58.2741128
  78.4443794 115.4416630  58.1348602  79.9550464 115.3638427  58.1957774
  81.9683521 112.1635089  64.5481780  82.4917923 112.4097385  65.3108089
  81.7495855 112.9955124  64.1284917  77.3650803 114.4338764  52.4152905
  77.0363509 113.5536142  52.2328011  77.7190173 114.3786432  53.3029294
  80.4792626 114.7211733  52.7828382  80.8188698 115.2497655  52.0606991
  80.9264746 115.0592139  53.5586949  83.1736066 113.1048784  62.2331451
  82.8332887 112.3056597  62.6352130  82.4675073 113.4050495  61.6608284
  83.8252538 110.1898096  60.6858774  84.6478608 109.7158575  60.5637664
  84.0690602 110.9688580  61.1857460  82.4660773 113.2186355  50.9821675
  83.1869135 113.5967608  50.4785392  81.8426077 113.9375232  51.0856653
  86.6091896 113.9231504  51.9180008  86.8255510 114.8056142  51.6168836
  86.1285963 113.5317717  51.1885650  81.3491117 116.8817217  58.4950752
  81.2035698 117.1957520  59.3875034  80.8716321 117.5002117  57.9421651
  83.2087500 113.8719765  58.5431642  83.1949069 112.9760858  58.2063940
  83.9259928 113.8790429  59.1769928  85.0613631 114.3057105  60.5884769
  84.8031408 115.2274176  60.5869100  84.5298671 113.9087540  61.2785233
  75.8236779 119.4222562  61.4338413  75.2790247 120.1982369  61.5658688
  76.7016129 119.7693366  61.2757535  82.6124396 112.7534145  53.8119212
  82.7340307 111.8250792  54.0110099  82.3226438 112.7672831  52.8997527
  85.4815586 110.4389056  56.9485932  85.5037283 110.5028389  55.9937911
  85.8983645 109.5993564  57.1426438  76.6102801 118.5492458  64.3268570
  75.8684537 118.6975093  64.9133201  76.2895545 118.8100723  63.4635320
  75.2568020 124.3544213  57.3167898  74.4199928 123.9266387  57.1351900
  75.2291665 124.5476656  58.2538690  82.0965475 114.2666143  68.0209144
  82.1453631 115.1428266  67.6386914  82.6387990 113.7243536  67.4480788
  84.3264764 115.0197515  64.7755503  83.4568073 115.3131081  64.5038092
  84.5624244 115.6037960  65.4962767  79.3407088 120.3653456  52.9096168
  79.0953130 119.4615786  53.1076378  79.5103002 120.3670606  51.9675646
  87.0303798 111.2377132  62.2920924  87.5485742 111.9738159  61.9667412
  86.6758930 111.5441125  63.1267683  78.6102735 116.0981813  50.4082329
  77.9171980 116.1726168  49.7522365  78.3654487 115.3342157  50.9303846
  87.2816392 107.6577415  57.8121820  87.5618146 106.9900604  58.4382247
  88.0666999 107.8506510  57.2996484  89.1739630 113.1650632  61.7452796
  88.5789562 113.4455645  61.0499285  88.8889326 113.6544533  62.5169537
  85.4696659 118.1697221  46.7162899  86.4155764 118.0403429  46.7851317
  85.0910904 117.4311883  47.1932327  91.4418543 109.8353227  56.6789791
  91.2443365 109.5268315  57.5633123  92.0518249 110.5614866  56.8087721
  83.6539576 116.0947198  46.6517784  82.7471031 115.7980310  46.7280498
  83.9315557 115.7977016  45.7852070  74.5717516 117.4153561  57.1016831
  74.2520301 116.5618869  56.8091205  74.0250945 117.6302139  57.8574798
  78.3497424 120.1316002  60.8186337  78.5683434 121.0633110  60.8374371
  78.7623198 119.7723976  61.6041141  85.2701642 110.6384087  52.8062025
  84.4602370 110.2931172  53.1817272  85.9586059 110.3291631  53.3949637
  87.1992190 109.7162134  54.4286322  87.7523229 110.1357588  55.0876345
  87.4362276 108.7897882  54.4709278  83.2225289 115.7049208  70.2089086
  83.1222016 116.6543565  70.1401177  83.0046831 115.3767447  69.3365156
  82.4238361 112.9534133  46.7929763  83.2857525 113.2789031  47.0525581
  82.6088705 112.1665629  46.2802829  74.4405776 121.0356473  59.0709952
  73.7469248 120.6210425  58.5579907  75.1878767 121.0777009  58.4743371
  90.5770997 111.8262659  53.9364986  89.9969666 112.4847463  53.5543039
  90.3106930 111.0040004  53.5252404  89.0274563 111.2267717  56.1386307
  89.5274342 111.3384252  55.3300626  89.6710171 110.9228770  56.7787115
  83.0856559 119.1346347  69.0254148  82.6023641 119.9346707  69.2318037
  83.1717498 119.1454292  68.0721592  76.3542519 120.9674726  56.9475967
  76.3313207 121.0662414  55.9957850  76.6643155 121.8139877  57.2693133
  79.0129897 123.0250881  61.0622581  79.9673150 122.9934824  60.9952513
  78.8142420 122.5641505  61.8772807  79.6029279 121.5951997  63.6293379
  80.4222168 122.0896076  63.6528216  79.8766087 120.6783966  63.6010947
  89.3595875 113.9862750  52.9921335  88.4721730 114.2712400  52.7741529
  89.7749864 113.8256513  52.1448611  92.7110411 114.0109271  56.7075674
  93.4870801 114.5005723  56.9800291  91.9858545 114.4367325  57.1647543
  74.8564193 115.9290131  64.3285576  75.5023057 115.4189085  64.8172801
  74.6481344 116.6658813  64.9029001  83.3767804 110.1930176  50.0809472
  83.3646473 111.1372016  50.2377743  84.2691226 110.0100321  49.7868934
  87.1919923 106.7872953  54.3355409  86.4252319 106.2331439  54.4812091
  87.6030628 106.8594821  55.1969561  79.1961684 113.0757748  68.4260590
  80.0593146 112.7194553  68.6363915  78.6227095 112.7371643  69.1135995
  23.1653781   4.4078304  45.9568298  23.8032191   4.2885051  45.2531638
  23.0474624   5.3559148  46.0156250  19.9743487   4.3605732  45.8929823
  19.6361999   4.2446796  45.0050358  20.8433255   3.9596897  45.8730829
  20.4563270   5.5140583  51.8516028  20.4451911   5.1193382  50.9796532
  20.6183910   4.7806656  52.4449800  21.4129862   9.8812176  37.1941179
  20.7617841  10.4666256  36.8075192  22.2074224  10.4118371  37.2536216
  15.3385489   6.9701313  37.5928313  16.1116365   6.4230300  37.4541189
  15.6910888   7.8345562  37.8042774  17.1770531   8.2977695  50.7995212
  16.8860397   9.2023326  50.6841879  17.8127516   8.3394223  51.5139282
  18.1026738   5.6754544  47.3896572  18.6990310   5.4510566  46.6753535
  18.1601710   4.9339289  47.9922020  22.7195049   2.1329757  43.0321506
  23.5058139   1.7149181  42.6811923  22.9833754   3.0375850  43.2003154
  22.8905127   7.5702608  37.7310163  22.2550960   7.6437234  38.4431068
  22.5602533   8.1596207  37.0529242  28.1203477   2.0704991  43.9354485
  28.8528648   1.5004207  44.1692314  27.3642832   1.6826591  44.3760990
  19.7379596   4.4932232  41.1317827  19.3737803   3.9662853  41.8430748
  20.5946712   4.1030701  40.9584312  22.1360416   7.9839111  47.7945006
  21.8361140   8.8864150  47.6860813  21.7911476   7.7171294  48.6466159
  25.5357560   0.5021651  45.4742443  24.6274438   0.4337059  45.1801204
  25.4845156   0.9793596  46.3024269  17.1181196  14.7483431  40.7615974
  17.0405226  15.6991256  40.8404454  16.5142840  14.4029304  41.4190900
  27.4019207  -1.2961911  47.2520317  26.7593587  -1.0029378  46.6060112
  26.8974135  -1.4108990  48.0573514  25.0559370   2.4501262  37.9406176
  25.9677226   2.6828649  37.7653874  24.5469017   3.0338307  37.3781255
  23.3400138   6.8725890  51.5767469  23.7483494   6.4308301  50.8322101
  22.6177399   6.2978518  51.8301662  23.6628953   7.4327081  45.3319758
  23.0337815   7.5972795  44.6295826  23.2754615   7.8468691  46.1030722
  27.5418184   8.3681519  42.6864122  26.8569223   8.7480420  42.1361155
  27.6262034   8.9776845  43.4196069  24.7969116   6.0141478  49.2859465
  25.0086011   6.6573238  48.6093846  24.7498864   5.1803794  48.8181395
  19.2156914   7.1701489  42.5969843  19.6795260   7.4489192  41.8074465
  18.9513713   6.2684934  42.4142934  16.1080996   6.7172971  45.5349606
  16.6782353   7.1460239  44.8967091  16.6989107   6.4355555  46.2333792
  25.9114944   8.8913433  47.4581823  26.7332388   8.4893621  47.1764504
  25.9077347   8.7881667  48.4097938  19.6771547   8.4397477  49.6142533
  19.7415980   8.9017884  50.4500705  18.9682471   7.8094841  49.7424843
  34.0020937   5.2352182  43.8066794  33.2484645   4.6659580  43.6510798
  34.1368478   5.2014846  44.7537429  19.3919565  10.1065584  39.4821513
  19.2565240  10.9517120  39.9106361  19.9329378  10.3084862  38.7187447
  14.6543847  10.7406778  42.1372192  14.8310476  11.6624743  41.9493175
  15.4500681  10.4265198  42.5666571  21.0188042  10.7289151  53.6121855
  20.5751896   9.9425529  53.2942760  21.6805255  10.9168301  52.9465746
  15.7775163  12.2584952  48.1382534  16.3282588  12.1302015  47.3659528
  14.9386639  12.5579841  47.7877427  23.1169280  11.0091950  51.6403257
  23.0987755  11.8300832  51.1483526  24.0389200  10.8846026  51.8653398
  19.5742334   8.5236080  52.4826765  20.1070671   7.7624368  52.2526073
  19.0456415   8.2309732  53.2250920  22.7062311   3.6204757  36.5192842
  22.1908935   4.3909362  36.7581229  22.4339620   2.9469893  37.1425903
  27.6796586   6.3737112  38.4546015  26.9026028   6.0348271  38.0101177
  28.3588067   6.3789735  37.7800980  20.9395046   7.6522072  39.9945577
  20.4116408   6.9174832  39.6818815  20.4382549   8.4296749  39.7485545
  25.9187892   5.8471093  45.1112623  25.2611567   6.5370354  45.1992752
  26.7228292   6.2367525  45.4546610  24.7293351   4.2015466  43.1616565
  25.2425233   4.8345457  43.6638275  25.3794575   3.6016661  42.7959925
  21.9915726  14.1799790  35.9177236  21.3177424  14.4831487  36.5262194
  22.3781547  14.9828870  35.5682693  21.9909230   3.0756337  40.5377586
  22.7381049   3.5877734  40.2284708  22.2600819   2.7540390  41.3981979
  20.2635880   5.5714878  37.5204540  19.3547099   5.2873910  37.6177010
  20.2930964   5.9913956  36.6607847  25.4955147   9.1821467  41.2895708
  25.0417475   8.3412377  41.3460898  24.8649114   9.8182865  41.6270488
  23.9388087  11.0197964  42.2245526  24.2311061  11.5803021  41.5057892
  24.4486707  11.3126525  42.9798685  19.9611968   7.1123621  34.8592619
  19.5231398   6.3959480  34.3998256  20.7022409   7.3399736  34.2977710
  18.9021712  11.7978315  43.3138979  18.8597891  12.0239161  42.3847511
  19.8184411  11.5641689  43.4624780  22.3487346   2.2662382  50.2119608
  22.7036733   2.4933856  51.0714074  22.9959477   2.5980759  49.5896864
  28.0785083   5.3880818  40.9168937  27.9402981   5.5782414  39.9890127
  27.7221301   6.1500201  41.3736988  28.1054462   7.4557345  45.9280209
  28.5390969   7.3632634  46.7763263  28.8186043   7.4314846  45.2900225
  17.0187513   8.6741344  43.1100942  17.8128111   8.1791664  42.9083517
  16.3079205   8.1459207  42.7468647  21.8382357  11.0559439  47.4613309
  21.8919379  11.6250376  48.2291025  20.9697139  11.2261324  47.0967347
  28.9670012   7.4981046  48.4613094  29.1605902   8.4026856  48.7072369
  28.8670630   7.0388465  49.2951679  24.0285120   7.6487789  54.0353975
  23.8770627   7.4198340  53.1184059  24.0189800   8.6058390  54.0485320
  20.7970457   5.2219701  49.0200241  21.7262517   5.3730861  48.8469209
  20.3761487   5.3103722  48.1648888  19.5958789   9.2470366  46.7898779
  19.4569874   8.8789150  47.6624717  18.8073385   9.7618005  46.6182737
  20.1906941  14.3479462  38.1324315  20.3658696  13.8767505  38.9469938
  19.5039729  14.9745229  38.3605576  21.1464004   8.6251969  44.1787617
  20.8113836   8.5852739  45.0745267  20.6467950   7.9596684  43.7058027
  24.0823195   5.9708003  34.4524676  23.4652366   5.2454831  34.3557729
  23.6139684   6.7317363  34.1091751  25.7377327  10.6806911  52.1130457
  25.6789873   9.9966131  51.4461040  26.1396846  11.4225901  51.6611083
  14.7568026  17.4968825  44.9064176  14.9964624  18.1287349  45.5843194
  13.9137222  17.1456865  45.1929535  25.7394734   8.6446495  50.3444436
  24.8521513   8.3072417  50.4670835  26.3093285   7.9129526  50.5813202
  19.2695888  13.3047948  47.3105680  19.1966059  14.1102919  47.8224984
  18.8273281  13.5039913  46.4853701  19.0585667  12.5419718  40.8208501
  18.2753189  13.0841398  40.9146726  19.7578413  13.0593697  41.2202742
  30.2212075   4.0554713  45.1060998  30.2101951   4.9379428  44.7354931
  29.3529454   3.7026263  44.9115535  21.7294571  13.2034782  49.4663838
  22.4422544  13.8382246  49.3939740  21.2384600  13.2998648  48.6503840
  23.4512098   7.1086034  41.0381130  22.5168377   7.2287497  40.8685834
  23.6288767   6.2058501  40.7741140  26.8384650   2.9503353  41.5731164
  27.3045102   3.7831345  41.4991467  27.2892150   2.4848335  42.2776423
  16.7806485  10.9529225  50.2869409  17.4815944  11.5865708  50.4398803
  16.3101600  11.2943957  49.5265048  24.9060881   9.2947175  38.5717316
  25.1820725   9.1803769  39.4811190  24.0365379   8.8964660  38.5329489
  24.5807771   3.5073832  48.1121959  23.9279221   3.7549740  47.4574412
  24.9588151   2.6937971  47.7784437  21.5414945  13.5433526  42.2150130
  21.7237339  12.7255182  42.6777882  22.3647931  13.7601218  41.7775020
  21.8757110  12.4701711  39.4765178  22.4044877  11.9594165  38.8635340
  22.1385330  12.1544241  40.3410711  20.6295344   4.2493644  54.5987997
  19.9535981   4.1487773  55.2690372  21.4522978   4.0932857  55.0623994
  12.3774203  10.4865580  47.2200512  12.9627640   9.7409268  47.3528416
  12.1799041  10.7969537  48.1037176  15.2312858  13.5216827  42.2362954
  14.5623233  14.0062955  41.7526994  15.0925728  13.7686048  43.1506333
  19.3718127  15.5560571  48.8345613  19.9236435  15.7192192  49.5994698
  19.7124320  16.1465009  48.1625637  24.2229001  10.3821828  54.6894267
  24.7668905  10.9951787  54.1949222  23.6415846  10.9401407  55.2061280
  22.5086514  13.5042546  45.8209295  22.3837653  12.7032286  45.3120240
  23.1665605  13.9988740  45.3323265  24.5721422  11.3051567  47.4488845
  23.6251758  11.1856918  47.3767171  24.9204195  10.4174065  47.5315106
  21.5767856  11.1004283  43.6493197  21.4292818  10.1720990  43.8300767
  22.4021349  11.1224373  43.1650272  25.1801978  11.9232842  44.7358070
  26.1048525  11.7175703  44.5982521  25.0117281  11.6749243  45.6447411
  24.9697294  12.4418509  40.0920161  25.1434171  11.8764931  39.3394014
  25.4626185  13.2419404  39.9099651  30.8236685   5.2054932  41.7110461
  31.2667831   4.4562257  41.3129584  29.9463195   5.1965068  41.3284193
  25.9572466  11.7585273  37.1917059  26.6523371  12.3791966  37.4104374
  26.2995616  10.9080625  37.4669437  27.8563889   9.2084979  38.7204390
  28.3815213   9.5472252  37.9953710  27.7686242   8.2731994  38.5367525
  19.5183938  13.1219053  50.8494267  19.8271064  12.8768199  51.7216966
  20.3159420  13.3265691  50.3613137  19.5404550  15.2756962  43.0799643
  19.1009540  14.7833341  43.7732500  20.2912667  14.7329930  42.8391719
  12.0196889  11.4668503  43.0824271  12.8454909  11.1672275  42.7022915
  11.6690941  10.6976125  43.5314060  16.9878422  10.8194971  45.1521945
  16.3658432  10.1565676  44.8524173  17.6583289  10.8456103  44.4695593
  27.5457795   9.8417883  54.0255588  26.7553339   9.8242021  53.4860088
  27.3091150  10.3806176  54.7804625  27.6655670   6.6910349  51.3388317
  27.7153675   6.5260356  52.2803840  27.5569594   5.8237608  50.9486198
  16.5491929   9.3698895  38.6280406  16.6980050  10.0534359  37.9747078
  17.3558373   9.3503985  39.1429861  24.9559433   2.6741277  52.6547623
  25.8569296   2.5347742  52.3631621  25.0307407   2.8395732  53.5945801
  29.1673867   9.1107290  51.5830338  28.8758676   9.4737271  52.4193799
  28.5545999   8.3974299  51.4043670  30.3669550   6.6760170  44.1032908
  31.2016441   7.1149974  44.2670469  30.5028678   6.1998823  43.2841154
  27.4161056   4.2339905  50.0510396  27.8915177   4.4267551  49.2429248
  26.4926621   4.2899091  49.8053780  20.0487335  11.8647025  36.0992153
  19.4761302  12.4837212  35.6462625  20.6220128  12.4146387  36.6332075
  26.1162725   1.1105665  48.2838702  27.0680147   1.2103763  48.3050926
  25.9466175   0.3183934  48.7936786  23.2684594  12.1484175  37.2300735
  24.2015268  12.0829737  37.4333611  23.1807807  12.9840442  36.7715268
  25.8972611  11.4650046  34.1904683  25.8186243  11.1309909  35.0840441
  26.7182278  11.9571813  34.1896155  28.5950802   4.3311785  47.3981002
  28.5627122   3.3927786  47.5840685  29.2051426   4.4095822  46.6646826
  28.7445291   1.1222828  47.4439285  28.2284339   0.3381285  47.2569214
  29.6285239   0.7941545  47.6085804  34.4127352   5.3927792  46.5387038
  35.1430741   5.1313080  47.0994742  33.8034298   4.6556514  46.5789106
  32.4942649   3.5335654  47.1361489  31.7675813   3.3991619  46.5277981
  32.0789936   3.8412483  47.9418208  20.3172826   7.2525584  54.9008863
  21.2375835   7.4304183  55.0948909  20.2822409   6.3081629  54.7488562
  27.6747886  -0.9580113  43.4320980  28.4508276  -0.4683660  43.7045597
  26.9496020  -0.5322059  43.8892850  30.1120444  -0.2452494  44.4894921
  30.7064935  -0.4856758  43.7788229  30.1847028  -0.9645363  45.1168457
  12.3317600  13.5981117  44.8038086  12.1972068  12.8381518  44.2376084
  11.9149662  14.3222017  44.3366875  23.4676563   8.7818041  33.8114661
  24.1712413   8.9868043  34.4272317  22.7439212   9.3494803  34.0763745
  24.2974373   4.5327902  39.9316931  24.2409575   4.9896454  39.0924564
  24.8502716   3.7718587  39.7539774  28.1079179   0.3217634  40.7567051
  27.8516113  -0.0785730  41.5875259  27.4832047   1.0361428  40.6317190
  32.4191517   3.0613707  43.2638342  31.8591075   3.1306897  44.0369904
  31.8135020   2.8854692  42.5437839  15.4886726  14.4950434  45.0156529
  15.3719110  15.4395867  44.9135219  14.6679172  14.1923996  45.4042328
  25.3763260   9.2200570  35.8613121  26.2108864   8.7881769  35.6790596
  25.2147603   9.0482584  36.7890016  25.0309153   5.7232683  37.2269461
  24.9757956   5.5576955  36.2857905  24.4055208   6.4308716  37.3831650
  22.3455060   8.0281595  56.5523023  23.2146219   8.2022248  56.1909658
  21.8661811   8.8476012  56.4298753  16.5141240  15.1478696  48.2312457
  17.4168487  15.1802307  48.5478952  16.2878610  14.2179147  48.2458793
  18.2694842  13.9009683  44.8922536  17.3190473  13.9011544  44.7786908
  18.5727328  13.1542417  44.3758570  34.0047535  19.7370221  45.9568298
  34.6425945  19.6176969  45.2531638  33.8868378  20.6851065  46.0156250
  30.8137242  19.6897649  45.8929823  30.4755753  19.5738714  45.0050358
  31.6827010  19.2888814  45.8730829  26.6724057  21.5433126  41.8826714
  26.1088923  21.4523063  41.1143001  26.5576452  20.7233030  42.3629206
  31.2957025  20.8432501  51.8516028  31.2845665  20.4485299  50.9796532
  31.4577664  20.1098574  52.4449800  24.2188489  23.0384317  44.7210934
  25.0109781  22.6975142  44.3057233  24.4585139  23.1479292  45.6413087
  32.2523616  25.2104093  37.1941179  31.6011596  25.7958174  36.8075192
  33.0467979  25.7410288  37.2536216  26.1779243  22.2993231  37.5928313
  26.9510119  21.7522218  37.4541189  26.5304642  23.1637480  37.8042774
  28.0164286  23.6269613  50.7995212  27.7254152  24.5315244  50.6841879
  28.6521270  23.6686140  51.5139282  28.9420493  21.0046461  47.3896572
  29.5384065  20.7802484  46.6753535  28.9995464  20.2631207  47.9922020
  28.5145521  18.4585897  35.2246763  28.7671042  17.9367418  34.4630226
  27.5770080  18.2952042  35.3273446  33.5588804  17.4621675  43.0321506
  34.3451893  17.0441098  42.6811923  33.8227508  18.3667767  43.2003154
  33.7298881  22.8994525  37.7310163  33.0944714  22.9729152  38.4431068
  33.3996288  23.4888124  37.0529242  38.9597231  17.3996908  43.9354485
  39.6922403  16.8296125  44.1692314  38.2036587  17.0118509  44.3760990
  28.2341810  20.3614003  37.4271138  28.1178068  19.6858906  38.0952222
  28.3444070  19.8746377  36.6103291  30.5773351  19.8224150  41.1317827
  30.2131558  19.2954771  41.8430748  31.4340467  19.4322619  40.9584312
  36.4822651  11.1118482  48.3949093  36.1505976  11.9813893  48.1710308
  35.8868265  10.7954766  49.0743124  30.2178838  14.8514049  36.1279176
  30.3853240  15.7194286  36.4949647  30.0276007  15.0141331  35.2040465
  32.9754171  23.3131028  47.7945006  32.6754894  24.2156067  47.6860813
  32.6305230  23.0463212  48.6466159  26.4266652  19.7644825  43.8281710
  25.5017149  19.6321039  44.0359402  26.6751066  20.5439044  44.3251653
  36.3751315  15.8313569  45.4742443  35.4668192  15.7628977  45.1801204
  36.3238910  16.3085514  46.3024269  30.1968059  17.3071707  37.1125842
  30.0767684  17.7528758  37.9511323  29.5020647  17.6557025  36.5539381
  23.7875463  19.4078099  44.6625499  23.9167845  19.6612578  45.5764911
  23.1072915  20.0005807  44.3430154  27.9574951  30.0775349  40.7615974
  27.8798980  31.0283174  40.8404454  27.3536594  29.7321221  41.4190900
  30.4492180  17.2503214  53.4177341  29.6725515  17.8097134  53.4080205
  31.0882744  17.7359997  53.9392211  38.2412961  14.0330007  47.2520317
  37.5987341  14.3262540  46.6060112  37.7367890  13.9182927  48.0573514
  35.8953125  17.7793180  37.9406176  36.8070981  18.0120567  37.7653874
  35.3862772  18.3630224  37.3781255  28.7038553  20.0588668  52.9795308
  29.4453237  20.5973711  52.7030131  27.9975538  20.6854956  53.1366859
  34.1793892  22.2017808  51.5767469  34.5877248  21.7600219  50.8322101
  33.4571154  21.6270436  51.8301662  30.5324962  17.1390415  48.9501026
  31.3786158  17.5629828  49.0935675  30.4723600  16.4824039  49.6439589
  34.5022707  22.7618999  45.3319758  33.8731570  22.9264713  44.6295826
  34.1148369  23.1760608  46.1030722  38.3811939  23.6973436  42.6864122
  37.6962977  24.0772338  42.1361155  38.4655788  24.3068763  43.4196069
  33.6824408  14.7994783  50.6082200  33.4385340  15.5536844  50.0716475
  33.9584338  15.1780131  51.4429447  35.6362871  21.3433395  49.2859465
  35.8479766  21.9865155  48.6093846  35.5892619  20.5095712  48.8181395
  33.2389100  13.9551216  46.1896037  32.3773579  14.2532470  46.4812775
  33.2651534  14.1721615  45.2577070  30.0550669  22.4993407  42.5969843
  30.5189014  22.7781110  41.8074465  29.7907467  21.5976851  42.4142934
  26.9474750  22.0464888  45.5349606  27.5176107  22.4752157  44.8967091
  27.5382862  21.7647473  46.2333792  28.9919555  18.6216559  39.4059408
  29.6943598  19.0737603  39.8733334  28.6600184  17.9800378  40.0339301
  27.4399917  17.2128316  53.7810617  26.8098577  17.8944597  54.0146014
  27.3336004  17.1011397  52.8363756  22.7344889  16.8800112  44.7076542
  21.9443943  17.1357640  44.2316652  23.2256136  17.6948450  44.8128582
  36.7508699  24.2205351  47.4581823  37.5726142  23.8185538  47.1764504
  36.7471101  24.1173585  48.4097938  24.6859634  17.2444691  41.6660018
  23.8890798  17.3563385  42.1843514  24.4585227  17.5831343  40.8000909
  30.5165302  23.7689394  49.6142533  30.5809734  24.2309801  50.4500705
  29.8076226  23.1386759  49.7424843  21.0182592  17.1330602  47.1391532
  21.2690630  18.0177612  47.4049108  21.5542140  16.9535204  46.3666624
  44.8414692  20.5644099  43.8066794  44.0878400  19.9951497  43.6510798
  44.9762233  20.5306764  44.7537429  30.2313320  25.4357502  39.4821513
  30.0958994  26.2809037  39.9106361  30.7723132  25.6376779  38.7187447
  26.7180659  11.5149082  56.1435869  26.3247605  10.9615280  56.8183513
  27.5346800  11.8259660  56.5342386  23.6842717  22.9532940  40.0549438
  24.1967238  23.7476190  40.2055003  24.3365430  22.2559230  39.9883040
  25.4937602  26.0698696  42.1372192  25.6704230  26.9916661  41.9493175
  26.2894435  25.7557115  42.5666571  29.6348620  12.9306961  53.7356125
  30.3758334  13.5314114  53.6560588  29.8666543  12.1884598  53.1774168
  24.7789958  18.1163328  52.0134355  24.6643473  17.2148585  52.3141454
  23.9234476  18.3627025  51.6619171  31.8581796  26.0581068  53.6121855
  31.4145650  25.2717447  53.2942760  32.5199010  26.2460219  52.9465746
  26.6168917  27.5876870  48.1382534  27.1676342  27.4593933  47.3659528
  25.7780393  27.8871759  47.7877427  33.9563034  26.3383868  51.6403257
  33.9381509  27.1592749  51.1483526  34.8782954  26.2137943  51.8653398
  30.4136088  23.8527998  52.4826765  30.9464425  23.0916286  52.2526073
  29.8850169  23.5601649  53.2250920  33.5805783   8.9588064  48.0120407
  33.2370053   9.8489705  47.9359517  33.9484746   8.7689721  47.1489992
  21.6491634  21.2821594  40.8309009  22.4866856  21.6918602  40.6142717
  21.8269902  20.3421036  40.8009203  33.5456066  18.9496675  36.5192842
  33.0302689  19.7201279  36.7581229  33.2733374  18.2761811  37.1425903
  31.1303177  13.7946375  41.5778080  30.2744773  13.4053226  41.3983719
  31.5430129  13.8738336  40.7177866  32.6602324  11.3292719  45.9769640
  32.1567119  11.2922854  45.1637445  32.9532930  12.2385461  46.0366297
  28.9045209  11.4131448  44.9835822  29.7698206  11.2174257  44.6241711
  28.9722718  11.1841800  45.9105179  38.5190340  21.7029029  38.4546015
  37.7419783  21.3640189  38.0101177  39.1981821  21.7081653  37.7800980
  33.3342369  16.8223767  38.3452623  33.0292505  17.1369916  39.1962766
  34.2872811  16.9005187  38.3879956  31.7788801  22.9813990  39.9945577
  31.2510163  22.2466750  39.6818815  31.2776304  23.7588666  39.7485545
  36.7581647  21.1763011  45.1112623  36.1005321  21.8662272  45.1992752
  37.5622046  21.5659443  45.4546610  26.5107529  13.6433656  42.3552189
  27.0851280  13.4208838  41.6225382  27.0978511  13.7122351  43.1080790
  35.5687106  19.5307383  43.1616565  36.0818988  20.1637375  43.6638275
  36.2188330  18.9308579  42.7959925  26.8377116  15.6738117  36.3748074
  26.0014428  16.0112804  36.6957349  26.6981885  15.5387097  35.4375211
  28.8130196  10.5174905  41.0827258  28.1594609  10.2023922  40.4583873
  28.7710670   9.8950646  41.8087081  29.9241401  20.7994200  32.9980550
  29.0168463  20.5683454  33.1971699  30.4212433  20.0031820  33.1854532
  32.8309480  29.5091708  35.9177236  32.1571179  29.8123404  36.5262194
  33.2175302  30.3120788  35.5682693  32.0467937  17.0056839  45.4074906
  31.1290498  17.2271786  45.2496594  32.4628080  17.0803149  44.5486613
  32.8302984  18.4048255  40.5377586  33.5774803  18.9169652  40.2284708
  33.0994574  18.0832307  41.3981979  31.1029635  20.9006795  37.5204540
  30.1940854  20.6165828  37.6177010  31.1324718  21.3205874  36.6607847
  36.3348902  24.5113385  41.2895708  35.8811229  23.6704295  41.3460898
  35.7042869  25.1474783  41.6270488  35.2781822  15.4405371  42.5196375
  34.5404578  14.9282757  42.8506618  35.5308595  15.0005752  41.7079652
  34.7781841  26.3489881  42.2245526  35.0704816  26.9094939  41.5057892
  35.2880462  26.6418442  42.9798685  35.3793449   8.2181623  43.1138144
  35.6852326   7.3578986  42.8264060  36.1046054   8.8099243  42.9137138
  21.6717805  18.6212309  41.5019742  21.4742205  18.0281670  40.7770809
  21.1164469  18.3164520  42.2195681  29.6514529  18.5135416  43.6214336
  29.7063138  17.5609252  43.5456812  28.8405731  18.6694855  44.1055634
  30.8005722  22.4415539  34.8592619  30.3625152  21.7251398  34.3998256
  31.5416163  22.6691654  34.2977710  27.5906889  17.1312476  41.3804714
  26.7774754  17.4306646  41.7869907  28.0865883  16.7368164  42.0979197
  29.7415466  27.1270233  43.3138979  29.6991645  27.3531079  42.3847511
  30.6578165  26.8933607  43.4624780  33.1881100  17.5954300  50.2119608
  33.5430488  17.8225773  51.0714074  33.8353231  17.9272677  49.5896864
  38.9178837  20.7172736  40.9168937  38.7796736  20.9074332  39.9890127
  38.5615056  21.4792119  41.3736988  27.0820963  14.7030831  46.9965949
  27.7220343  14.5619590  46.2988913  26.2498494  14.4165344  46.6204551
  38.9448217  22.7849263  45.9280209  39.3784723  22.6924552  46.7763263
  39.6579797  22.7606763  45.2900225  27.8581267  24.0033262  43.1100942
  28.6521866  23.5083582  42.9083517  27.1472960  23.4751125  42.7468647
  32.6776112  26.3851357  47.4613309  32.7313134  26.9542293  48.2291025
  31.8090893  26.5553242  47.0967347  24.1664031  18.1476343  39.1860695
  23.2361619  18.0860799  39.4030657  24.2621503  17.6252296  38.3897336
  24.0849580  14.6731156  41.7738936  24.3456397  15.5876489  41.6648097
  24.9066752  14.2055599  41.9235549  25.5574505  16.0868913  48.9437761
  26.2297558  15.8786275  48.2950410  24.7304292  15.8890999  48.5042993
  39.8063766  22.8272964  48.4613094  39.9999656  23.7318774  48.7072369
  39.7064384  22.3680383  49.2951679  31.4600077  12.7130854  50.9603422
  30.8127992  13.4120804  50.8667898  32.2301092  13.1466998  51.3279670
  34.8678875  22.9779706  54.0353975  34.7164381  22.7490258  53.1184059
  34.8583554  23.9350308  54.0485320  31.6364211  20.5511619  49.0200241
  32.5656271  20.7022779  48.8469209  31.2155241  20.6395640  48.1648888
  30.4352543  24.5762284  46.7898779  30.2963629  24.2081068  47.6624717
  29.6467139  25.0909923  46.6182737  31.0300695  29.6771380  38.1324315
  31.2052451  29.2059423  38.9469938  30.3433483  30.3037146  38.3605576
  31.9857758  23.9543886  44.1787617  31.6507591  23.9144656  45.0745267
  31.4861704  23.2888602  43.7058027  25.9602002  19.3611516  49.7040198
  25.8221800  18.6291755  50.3051737  26.8706926  19.2720416  49.4224386
  34.9216950  21.2999921  34.4524676  34.3046121  20.5746749  34.3557729
  34.4533438  22.0609281  34.1091751  28.5884303  19.0731476  49.1923878
  29.2983921  18.4324668  49.1510496  28.5453611  19.3244370  50.1150058
  36.5771082  26.0098829  52.1130457  36.5183628  25.3258049  51.4461040
  36.9790600  26.7517819  51.6611083  27.3013237  16.0596693  51.0119517
  26.7650594  15.6087432  51.6641113  26.7129945  16.1942602  50.2689981
  25.5961780  32.8260743  44.9064176  25.8358379  33.4579267  45.5843194
  24.7530977  32.4748783  45.1929535  26.7115496  15.5185345  33.5745981
  25.8344962  15.3974146  33.2108227  27.1873249  14.7271423  33.3224869
  36.5788489  23.9738413  50.3444436  35.6915268  23.6364335  50.4670835
  37.1487040  23.2421444  50.5813202  18.2317636  20.3062505  43.6687488
  18.9188676  19.9924235  43.0808503  18.0765765  21.2103869  43.3954739
  23.0352358  15.1952701  48.0972511  22.9510547  14.5878371  47.3622921
  22.2135065  15.6861719  48.0982008  30.1089642  28.6339865  47.3105680
  30.0359814  29.4394837  47.8224984  29.6667035  28.8331831  46.4853701
  29.8979422  27.8711635  40.8208501  29.1146944  28.4133315  40.9146726
  30.5972167  28.3885615  41.2202742  33.2076072  13.6806265  43.4642707
  33.7044772  12.9276227  43.1443777  32.4363054  13.7170581  42.8985916
  41.0605829  19.3846630  45.1060998  41.0495706  20.2671346  44.7354931
  40.1923209  19.0318181  44.9115535  32.5688326  28.5326699  49.4663838
  33.2816298  29.1674164  49.3939740  32.0778354  28.6290565  48.6503840
  34.2905853  22.4377952  41.0381130  33.3562131  22.5579414  40.8685834
  34.4682521  21.5350419  40.7741140  29.7911041  15.8223648  43.1914391
  29.4208828  15.2694688  43.8795297  30.2870133  15.2181781  42.6389391
  37.6778404  18.2795271  41.5731164  38.1438856  19.1123263  41.4991467
  38.1285905  17.8140253  42.2776423  27.6200239  26.2821143  50.2869409
  28.3209699  26.9157626  50.4398803  27.1495354  26.6235874  49.5265048
  35.7454635  24.6239092  38.5717316  36.0214479  24.5095687  39.4811190
  34.8759134  24.2256577  38.5329489  35.6495067  10.6475858  45.6122065
  34.7358147  10.8780085  45.7804272  36.0788168  10.7314302  46.4636098
  35.4201525  18.8365750  48.1121959  34.7672976  19.0841658  47.4574412
  35.7981905  18.0229888  47.7784437  32.3808699  28.8725443  42.2150130
  32.5631094  28.0547099  42.6777882  33.2041685  29.0893136  41.7775020
  32.7150865  27.7993628  39.4765178  33.2438631  27.2886083  38.8635340
  32.9779084  27.4836159  40.3410711  31.4689098  19.5785561  54.5987997
  30.7929735  19.4779691  55.2690372  32.2916732  19.4224775  55.0623994
  23.2167957  25.8157498  47.2200512  23.8021394  25.0701186  47.3528416
  23.0192796  26.1261454  48.1037176  26.0706613  28.8508745  42.2362954
  25.4016988  29.3354873  41.7526994  25.9319482  29.0977966  43.1506333
  17.8085612  18.3863098  45.9404955  17.8469712  17.8526689  46.7342073
  17.3025905  17.8598303  45.3215932  30.2111881  30.8852489  48.8345613
  30.7630189  31.0484110  49.5994698  30.5518075  31.4756926  48.1625637
  25.1876374  13.2327638  49.4367497  25.2517701  14.0942469  49.0244895
  25.1243495  12.6201640  48.7039856  24.6628647  15.3050771  53.0840531
  25.2900686  14.9227848  53.6978056  23.8056566  15.0864973  53.4496224
  35.0622756  25.7113746  54.6894267  35.6062660  26.3243704  54.1949222
  34.4809600  26.2693325  55.2061280  21.4394190  17.1127200  39.0158886
  21.7347631  16.2037879  38.9625940  20.5382225  17.0914940  38.6939889
  33.3480268  28.8334464  45.8209295  33.2231408  28.0324204  45.3120240
  34.0059360  29.3280658  45.3323265  24.9688437  15.1883197  44.9986435
  24.2475022  15.8019164  44.8593908  25.7581692  15.7240961  44.9203081
  35.4115177  26.6343484  47.4488845  34.4645512  26.5148835  47.3767171
  35.7597950  25.7465982  47.5315106  27.7714750  12.5237623  51.2727087
  28.2949152  12.7699920  52.0353396  27.5527084  13.3557658  50.8530224
  23.1682031  14.7941298  39.1398211  22.8394737  13.9138677  38.9573317
  23.5221402  14.7388966  40.0274601  32.4161610  26.4296200  43.6493197
  32.2686573  25.5012908  43.8300767  33.2415104  26.4516291  43.1650272
  26.2823854  15.0814268  39.5073689  26.6219927  15.6100189  38.7852297
  26.7295975  15.4194674  40.2832256  36.0195732  27.2524759  44.7358070
  36.9442279  27.0467621  44.5982521  35.8511035  27.0041160  45.6447411
  28.9767295  13.4651318  48.9576757  28.6364116  12.6659131  49.3597437
  28.2706302  13.7653029  48.3853590  29.6283767  10.5500631  47.4104080
  30.4509836  10.0761109  47.2882971  29.8721831  11.3291114  47.9102766
  28.2692002  13.5788889  37.7066982  28.9900364  13.9570142  37.2030699
  27.6457306  14.2977766  37.8101960  32.4123124  14.2834038  38.6425314
  32.6286739  15.1658676  38.3414142  31.9317192  13.8920252  37.9130956
  27.1522346  17.2419751  45.2196059  27.0066927  17.5560054  46.1120340
  26.6747549  17.8604652  44.6666957  29.0118729  14.2322299  45.2676948
  28.9980298  13.3363393  44.9309246  29.7291157  14.2392963  45.9015234
  30.8644859  14.6659640  47.3130076  30.6062637  15.5876710  47.3114406
  30.3329900  14.2690074  48.0030540  35.8091048  27.7710427  40.0920161
  35.9827926  27.2056849  39.3394014  36.3019939  28.5711322  39.9099651
  21.6268008  19.7825096  48.1583720  21.0821476  20.5584904  48.2903994
  22.5047358  20.1295900  48.0002841  28.4155625  13.1136680  40.5364519
  28.5371536  12.1853326  40.7355406  28.1257667  13.1275366  39.6242834
  31.2846815  10.7991590  43.6731238  31.3068512  10.8630923  42.7183218
  31.7014874   9.9596099  43.8671745  41.6630439  20.5346850  41.7110461
  42.1061585  19.7854175  41.3129584  40.7856950  20.5256986  41.3284193
  36.7966221  27.0877191  37.1917059  37.4917125  27.7083884  37.4104374
  37.1389371  26.2372542  37.4669437  22.4134030  18.9094992  51.0513877
  21.6715766  19.0577627  51.6378507  22.0926774  19.1703258  50.1880626
  38.6957644  24.5376897  38.7204390  39.2208968  24.8764169  37.9953710
  38.6079996  23.6023912  38.5367525  30.3577693  28.4510970  50.8494267
  30.6664819  28.2060117  51.7216966  31.1553175  28.6557609  50.3613137
  30.3798305  30.6048880  43.0799643  29.9403295  30.1125259  43.7732500
  31.1306422  30.0621848  42.8391719  22.8590644  26.7960421  43.0824271
  23.6848663  26.4964193  42.7022915  22.5084696  26.0268043  43.5314060
  27.8272177  26.1486889  45.1521945  27.2052186  25.4857594  44.8524173
  28.4977044  26.1748021  44.4695593  21.0599249  24.7146747  44.0413205
  20.2231157  24.2868922  43.8597206  21.0322894  24.9079191  44.9783996
  27.8996704  14.6268677  54.7454451  27.9484860  15.5030800  54.3632221
  28.4419218  14.0846070  54.1726094  38.3851550  25.1709800  54.0255588
  37.5947094  25.1533939  53.4860088  38.1484904  25.7098094  54.7804625
  38.5049425  22.0202267  51.3388317  38.5547430  21.8552274  52.2803840
  38.3963348  21.1529526  50.9486198  27.3885684  24.6990812  38.6280406
  27.5373804  25.3826277  37.9747078  28.1952127  24.6795902  39.1429861
  35.7953187  18.0033195  52.6547623  36.6963050  17.8639659  52.3631621
  35.8701162  18.1687649  53.5945801  30.1295993  15.3800049  51.5000810
  29.2599302  15.6733615  51.2283398  30.3655473  15.9640494  52.2208073
  40.0067622  24.4399208  51.5830338  39.7152430  24.8029189  52.4193799
  39.3939753  23.7266216  51.4043670  41.2063304  22.0052088  44.1032908
  42.0410195  22.4441892  44.2670469  41.3422433  21.5290741  43.2841154
  38.2554810  19.5631823  50.0510396  38.7308932  19.7559469  49.2429248
  37.3320375  19.6191009  49.8053780  25.1438317  20.7255990  39.6341475
  24.8984359  19.8218320  39.8321685  25.3134231  20.7273140  38.6920953
  32.8335027  11.5979666  49.0166230  33.3516970  12.3340693  48.6912719
  32.4790159  11.9043660  49.8512989  24.4133964  16.4584348  37.1327636
  23.7203209  16.5328702  36.4767672  24.1685716  15.6944691  37.6549153
  33.0847621   8.0179949  44.5367127  33.3649374   7.3503138  45.1627553
  33.8698228   8.2109044  44.0241791  30.8881089  27.1938943  36.0992153
  30.3155056  27.8129130  35.6462625  31.4613883  27.7438304  36.6332075
  36.9556479  16.4397583  48.2838702  37.9073902  16.5395680  48.3050926
  36.7859929  15.6475851  48.7936786  34.9770858  13.5253166  48.4698103
  34.3820791  13.8058179  47.7744591  34.6920555  14.0147067  49.2414844
  34.1078349  27.4776093  37.2300735  35.0409022  27.4121655  37.4333611
  34.0201562  28.3132360  36.7715268  36.7366366  26.7941963  34.1904683
  36.6579997  26.4601827  35.0840441  37.5576032  27.2863731  34.1896155
  39.4344557  19.6603703  47.3981002  39.4020877  18.7219703  47.5840685
  40.0445180  19.7387739  46.6646826  31.2727888  18.5299756  33.4408206
  32.2186992  18.4005964  33.5096624  30.8942133  17.7914417  33.9177634
  39.5839045  16.4514746  47.4439285  39.0678094  15.6673203  47.2569214
  40.4678994  16.1233463  47.6085804  37.2449772  10.1955762  43.4035097
  37.0474593   9.8870850  44.2878429  37.8549478  10.9217400  43.5333027
  45.2521107  20.7219709  46.5387038  45.9824495  20.4604997  47.0994742
  44.6428052  19.9848431  46.5789106  43.3336404  18.8627572  47.1361489
  42.6069567  18.7283537  46.5277981  42.9183691  19.1704401  47.9418208
  31.1566580  22.5817502  54.9008863  32.0769590  22.7596101  55.0948909
  31.1216163  21.6373547  54.7488562  29.4570805  16.4549732  33.3763091
  28.5502260  16.1582845  33.4525804  29.7346786  16.1579550  32.5097377
  20.3748745  17.7756095  43.8262137  20.0551530  16.9221403  43.5336511
  19.8282173  17.9904673  44.5820104  24.1528653  20.4918536  47.5431644
  24.3714663  21.4235644  47.5619677  24.5654427  20.1326511  48.3286448
  31.0732871  10.9986622  39.5307332  30.2633599  10.6533707  39.9062578
  31.7617287  10.6894165  40.1194944  33.0023419  10.0764668  41.1531629
  33.5554457  10.4960122  41.8121652  33.2393505   9.1500417  41.1954585
  29.0256518  16.0651742  56.9334393  28.9253245  17.0146099  56.8646484
  28.8078060  15.7369981  56.0610463  28.2269589  13.3136667  33.5175070
  29.0888753  13.6391565  33.7770887  28.4119934  12.5268163  33.0048136
  20.2437005  21.3959007  45.7955259  19.5500477  20.9812960  45.2825213
  20.9909996  21.4379543  45.1988678  36.3802226  12.1865194  40.6610293
  35.8000895  12.8449998  40.2788345  36.1138159  11.3642538  40.2497710
  34.8305792  11.5870251  42.8631613  35.3305571  11.6986786  42.0545932
  35.4741400  11.2831304  43.5032422  28.8887788  19.4948881  55.7499454
  28.4054870  20.2949241  55.9563343  28.9748727  19.5056826  54.7966898
  22.1573748  21.3277261  43.6721274  22.1344436  21.4264948  42.7203157
  22.4674384  22.1742411  43.9938440  24.8161126  23.3853416  47.7867888
  25.7704379  23.3537358  47.7197820  24.6173649  22.9244039  48.6018114
  25.4060508  21.9554532  50.3538686  26.2253397  22.4498610  50.3773523
  25.6797315  21.0386500  50.3256253  35.1627104  14.3465284  39.7166641
  34.2752959  14.6314935  39.4986836  35.5781093  14.1859047  38.8693918
  38.5141640  14.3711805  43.4320980  39.2902030  14.8608257  43.7045597
  37.7889774  14.7969859  43.8892850  40.9514199  15.0839424  44.4894921
  41.5458690  14.8435160  43.7788229  41.0240782  14.3646555  45.1168457
  23.1711354  28.9273035  44.8038086  23.0365822  28.1673436  44.2376084
  22.7543417  29.6513935  44.3366875  34.3070317  24.1109959  33.8114661
  35.0106168  24.3159961  34.4272317  33.5832966  24.6786721  34.0763745
  35.1368128  19.8619820  39.9316931  35.0803329  20.3188371  39.0924564
  35.6896470  19.1010504  39.7539774  38.9472934  15.6509552  40.7567051
  38.6909868  15.2506187  41.5875259  38.3225802  16.3653346  40.6317190
  43.2585271  18.3905625  43.2638342  42.6984829  18.4598814  44.0369904
  42.6528775  18.2146610  42.5437839  26.3280480  29.8242352  45.0156529
  26.2112864  30.7687785  44.9135219  25.5072927  29.5215914  45.4042328
  36.2157015  24.5492488  35.8613121  37.0502619  24.1173686  35.6790596
  36.0541358  24.3774502  36.7890016  35.8702907  21.0524601  37.2269461
  35.8151711  20.8868873  36.2857905  35.2448962  21.7600634  37.3831650
  20.6595422  16.2892666  51.0530883  21.3054286  15.7791619  51.5418108
  20.4512573  17.0261347  51.6274308  33.1848814  23.3573513  56.5523023
  34.0539974  23.5314165  56.1909658  32.7055566  24.1767930  56.4298753
  29.1799032  10.5532710  36.8054779  29.1677702  11.4974550  36.9623050
  30.0722454  10.3702856  36.5114240  27.3534994  30.4770614  48.2312457
  28.2562241  30.5094224  48.5478952  27.1272364  29.5471065  48.2458793
  29.1088596  29.2301601  44.8922536  28.1584227  29.2303462  44.7786908
  29.4121083  28.4834335  44.3758570  32.9951152   7.1475487  41.0600716
  32.2283548   6.5933973  41.2057398  33.4061857   7.2197356  41.9214867
  24.9992913  13.4360283  55.1505897  25.8624375  13.0797087  55.3609222
  24.4258324  13.0974177  55.8381301  44.8441290  35.0662139  45.9568298
  45.4819700  34.9468886  45.2531638  44.7262133  36.0142983  46.0156250
  41.6530996  35.0189567  45.8929823  41.3149508  34.9030632  45.0050358
  42.5220764  34.6180732  45.8730829  37.5117812  36.8725043  41.8826714
  36.9482677  36.7814980  41.1143001  37.3970207  36.0524948  42.3629206
  42.1350779  36.1724419  51.8516028  42.1239420  35.7777217  50.9796532
  42.2971419  35.4390491  52.4449800  35.0582244  38.3676235  44.7210934
  35.8503536  38.0267060  44.3057233  35.2978894  38.4771210  45.6413087
  43.0917371  40.5396011  37.1941179  42.4405350  41.1250092  36.8075192
  43.8861733  41.0702206  37.2536216  37.0172998  37.6285148  37.5928313
  37.7903874  37.0814135  37.4541189  37.3698397  38.4929398  37.8042774
  38.8558040  38.9561531  50.7995212  38.5647906  39.8607161  50.6841879
  39.4915025  38.9978058  51.5139282  39.7814247  36.3338379  47.3896572
  40.3777819  36.1094401  46.6753535  39.8389219  35.5923125  47.9922020
  39.3539276  33.7877814  35.2246763  39.6064796  33.2659336  34.4630226
  38.4163835  33.6243960  35.3273446  44.3982558  32.7913593  43.0321506
  45.1845648  32.3733016  42.6811923  44.6621263  33.6959685  43.2003154
  44.5692636  38.2286443  37.7310163  43.9338469  38.3021070  38.4431068
  44.2390042  38.8180042  37.0529242  49.7990986  32.7288826  43.9354485
  50.5316157  32.1588043  44.1692314  49.0430341  32.3410426  44.3760990
  39.0735564  35.6905920  37.4271138  38.9571822  35.0150824  38.0952222
  39.1837824  35.2038294  36.6103291  41.4167105  35.1516067  41.1317827
  41.0525312  34.6246688  41.8430748  42.2734221  34.7614537  40.9584312
  47.3216406  26.4410400  48.3949093  46.9899731  27.3105811  48.1710308
  46.7262019  26.1246684  49.0743124  41.0572592  30.1805967  36.1279176
  41.2246995  31.0486204  36.4949647  40.8669761  30.3433249  35.2040465
  43.8147925  38.6422946  47.7945006  43.5148648  39.5447985  47.6860813
  43.4698985  38.3755129  48.6466159  37.2660407  35.0936743  43.8281710
  36.3410903  34.9612957  44.0359402  37.5144820  35.8730962  44.3251653
  47.2145069  31.1605486  45.4742443  46.3061947  31.0920895  45.1801204
  47.1632665  31.6377431  46.3024269  41.0361813  32.6363625  37.1125842
  40.9161438  33.0820675  37.9511323  40.3414401  32.9848942  36.5539381
  34.6269218  34.7370016  44.6625499  34.7561599  34.9904495  45.5764911
  33.9466669  35.3297724  44.3430154  38.7968705  45.4067266  40.7615974
  38.7192735  46.3575092  40.8404454  38.1930349  45.0613139  41.4190900
  41.2885935  32.5795132  53.4177341  40.5119269  33.1389052  53.4080205
  41.9276498  33.0651915  53.9392211  49.0806716  29.3621925  47.2520317
  48.4381096  29.6554458  46.6060112  48.5761644  29.2474845  48.0573514
  46.7346879  33.1085098  37.9406176  47.6464735  33.3412485  37.7653874
  46.2256526  33.6922142  37.3781255  39.5432307  35.3880585  52.9795308
  40.2846992  35.9265629  52.7030131  38.8369293  36.0146874  53.1366859
  45.0187647  37.5309726  51.5767469  45.4271003  37.0892136  50.8322101
  44.2964908  36.9562353  51.8301662  41.3718717  32.4682332  48.9501026
  42.2179912  32.8921746  49.0935675  41.3117355  31.8115957  49.6439589
  45.3416462  38.0910916  45.3319758  44.7125324  38.2556630  44.6295826
  44.9542124  38.5052526  46.1030722  44.5218162  30.1286701  50.6082200
  44.2779094  30.8828761  50.0716475  44.7978093  30.5072048  51.4429447
  46.4756625  36.6725313  49.2859465  46.6873520  37.3157073  48.6093846
  46.4286373  35.8387630  48.8181395  44.0782854  29.2843134  46.1896037
  43.2167333  29.5824387  46.4812775  44.1045289  29.5013533  45.2577070
  40.8944423  37.8285324  42.5969843  41.3582769  38.1073027  41.8074465
  40.6301222  36.9268769  42.4142934  37.7868505  37.3756806  45.5349606
  38.3569862  37.8044074  44.8967091  38.3776616  37.0939391  46.2333792
  39.8313310  33.9508477  39.4059408  40.5337353  34.4029520  39.8733334
  39.4993938  33.3092296  40.0339301  38.2793671  32.5420233  53.7810617
  37.6492332  33.2236514  54.0146014  38.1729759  32.4303315  52.8363756
  33.5738643  32.2092029  44.7076542  32.7837697  32.4649558  44.2316652
  34.0649891  33.0240367  44.8128582  47.5902453  39.5497269  47.4581823
  48.4119897  39.1477456  47.1764504  47.5864856  39.4465503  48.4097938
  35.5253389  32.5736609  41.6660018  34.7284552  32.6855303  42.1843514
  35.2978981  32.9123261  40.8000909  41.3559056  39.0981312  49.6142533
  41.4203489  39.5601719  50.4500705  40.6469980  38.4678677  49.7424843
  31.8576346  32.4622520  47.1391532  32.1084385  33.3469530  47.4049108
  32.3935895  32.2827121  46.3666624  55.6808446  35.8936017  43.8066794
  54.9272154  35.3243415  43.6510798  55.8155987  35.8598682  44.7537429
  41.0707074  40.7649419  39.4821513  40.9352749  41.6100955  39.9106361
  41.6116887  40.9668697  38.7187447  37.5574414  26.8440999  56.1435869
  37.1641359  26.2907198  56.8183513  38.3740554  27.1551578  56.5342386
  34.5236472  38.2824857  40.0549438  35.0360992  39.0768108  40.2055003
  35.1759184  37.5851148  39.9883040  36.3331356  41.3990614  42.1372192
  36.5097985  42.3208578  41.9493175  37.1288190  41.0849033  42.5666571
  40.4742375  28.2598878  53.7356125  41.2152088  28.8606031  53.6560588
  40.7060298  27.5176516  53.1774168  35.6183713  33.4455246  52.0134355
  35.5037228  32.5440503  52.3141454  34.7628231  33.6918942  51.6619171
  42.6975551  41.3872986  53.6121855  42.2539405  40.6009364  53.2942760
  43.3592764  41.5752136  52.9465746  37.4562672  42.9168787  48.1382534
  38.0070097  42.7885851  47.3659528  36.6174148  43.2163677  47.7877427
  44.7956789  41.6675786  51.6403257  44.7775264  42.4884667  51.1483526
  45.7176709  41.5429861  51.8653398  41.2529843  39.1819915  52.4826765
  41.7858180  38.4208203  52.2526073  40.7243924  38.8893567  53.2250920
  44.4199538  24.2879981  48.0120407  44.0763807  25.1781623  47.9359517
  44.7878500  24.0981639  47.1489992  32.4885388  36.6113512  40.8309009
  33.3260610  37.0210520  40.6142717  32.6663656  35.6712954  40.8009203
  44.3849820  34.2788592  36.5192842  43.8696444  35.0493197  36.7581229
  44.1127129  33.6053729  37.1425903  41.9696931  29.1238293  41.5778080
  41.1138528  28.7345144  41.3983719  42.3823883  29.2030254  40.7177866
  43.4996078  26.6584636  45.9769640  42.9960874  26.6214772  45.1637445
  43.7926685  27.5677379  46.0366297  39.7438964  26.7423366  44.9835822
  40.6091961  26.5466175  44.6241711  39.8116473  26.5133718  45.9105179
  49.3584095  37.0320947  38.4546015  48.5813537  36.6932107  38.0101177
  50.0375576  37.0373570  37.7800980  44.1736124  32.1515684  38.3452623
  43.8686259  32.4661834  39.1962766  45.1266566  32.2297104  38.3879956
  42.6182555  38.3105908  39.9945577  42.0903917  37.5758667  39.6818815
  42.1170058  39.0880584  39.7485545  47.5975401  36.5054928  45.1112623
  46.9399076  37.1954190  45.1992752  48.4015801  36.8951360  45.4546610
  37.3501283  28.9725574  42.3552189  37.9245035  28.7500756  41.6225382
  37.9372265  29.0414269  43.1080790  46.4080860  34.8599301  43.1616565
  46.9212742  35.4929293  43.6638275  47.0582084  34.2600496  42.7959925
  37.6770870  31.0030035  36.3748074  36.8408182  31.3404722  36.6957349
  37.5375640  30.8679015  35.4375211  39.6523951  25.8466823  41.0827258
  38.9988363  25.5315840  40.4583873  39.6104425  25.2242563  41.8087081
  40.7635156  36.1286118  32.9980550  39.8562217  35.8975371  33.1971699
  41.2606188  35.3323737  33.1854532  43.6703234  44.8383625  35.9177236
  42.9964933  45.1415322  36.5262194  44.0569056  45.6412706  35.5682693
  42.8861691  32.3348757  45.4074906  41.9684252  32.5563704  45.2496594
  43.3021835  32.4095067  44.5486613  43.6696739  33.7340172  40.5377586
  44.4168558  34.2461569  40.2284708  43.9388328  33.4124225  41.3981979
  41.9423389  36.2298713  37.5204540  41.0334608  35.9457746  37.6177010
  41.9718473  36.6497791  36.6607847  47.1742656  39.8405302  41.2895708
  46.7204984  38.9996212  41.3460898  46.5436623  40.4766701  41.6270488
  46.1175576  30.7697288  42.5196375  45.3798333  30.2574675  42.8506618
  46.3702350  30.3297670  41.7079652  45.6175596  41.6781799  42.2245526
  45.9098570  42.2386856  41.5057892  46.1274216  41.9710360  42.9798685
  46.2187203  23.5473540  43.1138144  46.5246080  22.6870904  42.8264060
  46.9439808  24.1391161  42.9137138  32.5111559  33.9504227  41.5019742
  32.3135959  33.3573588  40.7770809  31.9558223  33.6456437  42.2195681
  40.4908283  33.8427334  43.6214336  40.5456893  32.8901170  43.5456812
  39.6799485  33.9986773  44.1055634  41.6399477  37.7707457  34.8592619
  41.2018907  37.0543316  34.3998256  42.3809918  37.9983571  34.2977710
  38.4300643  32.4604393  41.3804714  37.6168509  32.7598564  41.7869907
  38.9259637  32.0660082  42.0979197  40.5809221  42.4562150  43.3138979
  40.5385400  42.6822996  42.3847511  41.4971920  42.2225525  43.4624780
  44.0274855  32.9246218  50.2119608  44.3824242  33.1517691  51.0714074
  44.6746986  33.2564595  49.5896864  49.7572592  36.0464654  40.9168937
  49.6190490  36.2366250  39.9890127  49.4008810  36.8084036  41.3736988
  37.9214718  30.0322749  46.9965949  38.5614097  29.8911508  46.2988913
  37.0892248  29.7457262  46.6204551  49.7841971  38.1141181  45.9280209
  50.2178478  38.0216470  46.7763263  50.4973552  38.0898681  45.2900225
  38.6975022  39.3325179  43.1100942  39.4915620  38.8375499  42.9083517
  37.9866714  38.8043042  42.7468647  43.5169866  41.7143275  47.4613309
  43.5706888  42.2834211  48.2291025  42.6484648  41.8845160  47.0967347
  35.0057785  33.4768261  39.1860695  34.0755373  33.4152716  39.4030657
  35.1015257  32.9544214  38.3897336  34.9243334  30.0023074  41.7738936
  35.1850151  30.9168407  41.6648097  35.7460507  29.5347516  41.9235549
  36.3968260  31.4160831  48.9437761  37.0691313  31.2078193  48.2950410
  35.5698046  31.2182917  48.5042993  50.6457521  38.1564881  48.4613094
  50.8393411  39.0610692  48.7072369  50.5458139  37.6972300  49.2951679
  42.2993832  28.0422772  50.9603422  41.6521747  28.7412722  50.8667898
  43.0694847  28.4758916  51.3279670  45.7072629  38.3071624  54.0353975
  45.5558136  38.0782176  53.1184059  45.6977309  39.2642225  54.0485320
  42.4757966  35.8803537  49.0200241  43.4050026  36.0314696  48.8469209
  42.0548996  35.9687558  48.1648888  41.2746298  39.9054201  46.7898779
  41.1357383  39.5372986  47.6624717  40.4860894  40.4201841  46.6182737
  41.8694450  45.0063298  38.1324315  42.0446205  44.5351341  38.9469938
  41.1827238  45.6329064  38.3605576  42.8251513  39.2835804  44.1787617
  42.4901345  39.2436574  45.0745267  42.3255458  38.6180520  43.7058027
  36.7995757  34.6903434  49.7040198  36.6615555  33.9583673  50.3051737
  37.7100680  34.6012334  49.4224386  45.7610704  36.6291838  34.4524676
  45.1439875  35.9038666  34.3557729  45.2927193  37.3901199  34.1091751
  39.4278057  34.4023393  49.1923878  40.1377676  33.7616585  49.1510496
  39.3847366  34.6536288  50.1150058  47.4164836  41.3390747  52.1130457
  47.3577382  40.6549967  51.4461040  47.8184355  42.0809737  51.6611083
  38.1406991  31.3888611  51.0119517  37.6044348  30.9379350  51.6641113
  37.5523700  31.5234520  50.2689981  37.5509250  30.8477263  33.5745981
  36.6738717  30.7266063  33.2108227  38.0267003  30.0563341  33.3224869
  47.4182243  39.3030331  50.3444436  46.5309022  38.9656252  50.4670835
  47.9880794  38.5713362  50.5813202  29.0711391  35.6354422  43.6687488
  29.7582430  35.3216152  43.0808503  28.9159519  36.5395787  43.3954739
  33.8746113  30.5244619  48.0972511  33.7904301  29.9170288  47.3622921
  33.0528819  31.0153637  48.0982008  40.9483397  43.9631783  47.3105680
  40.8753568  44.7686754  47.8224984  40.5060790  44.1623749  46.4853701
  40.7373176  43.2003553  40.8208501  39.9540698  43.7425233  40.9146726
  41.4365922  43.7177533  41.2202742  44.0469827  29.0098182  43.4642707
  44.5438526  28.2568145  43.1443777  43.2756808  29.0462499  42.8985916
  51.8999584  34.7138548  45.1060998  51.8889460  35.5963263  44.7354931
  51.0316963  34.3610099  44.9115535  43.4082080  43.8618617  49.4663838
  44.1210053  44.4966082  49.3939740  42.9172109  43.9582483  48.6503840
  45.1299607  37.7669870  41.0381130  44.1955886  37.8871332  40.8685834
  45.3076276  36.8642336  40.7741140  40.6304795  31.1515565  43.1914391
  40.2602583  30.5986606  43.8795297  41.1263888  30.5473699  42.6389391
  48.5172159  33.6087189  41.5731164  48.9832611  34.4415180  41.4991467
  48.9679659  33.1432170  42.2776423  38.4593994  41.6113060  50.2869409
  39.1603453  42.2449543  50.4398803  37.9889109  41.9527792  49.5265048
  46.5848390  39.9531010  38.5717316  46.8608234  39.8387605  39.4811190
  45.7152888  39.5548495  38.5329489  46.4888821  25.9767776  45.6122065
  45.5751901  26.2072003  45.7804272  46.9181923  26.0606220  46.4636098
  46.2595280  34.1657668  48.1121959  45.6066730  34.4133575  47.4574412
  46.6375660  33.3521806  47.7784437  43.2202454  44.2017361  42.2150130
  43.4024848  43.3839017  42.6777882  44.0435440  44.4185053  41.7775020
  43.5544619  43.1285546  39.4765178  44.0832386  42.6178001  38.8635340
  43.8172839  42.8128076  40.3410711  42.3082853  34.9077479  54.5987997
  41.6323490  34.8071608  55.2690372  43.1310487  34.7516693  55.0623994
  34.0561712  41.1449415  47.2200512  34.6415149  40.3993103  47.3528416
  33.8586550  41.4553372  48.1037176  36.9100367  44.1800663  42.2362954
  36.2410742  44.6646790  41.7526994  36.7713237  44.4269883  43.1506333
  28.6479367  33.7155016  45.9404955  28.6863466  33.1818606  46.7342073
  28.1419659  33.1890221  45.3215932  36.0270129  28.5619556  49.4367497
  36.0911455  29.4234387  49.0244895  35.9637249  27.9493558  48.7039856
  35.5022401  30.6342689  53.0840531  36.1294440  30.2519766  53.6978056
  34.6450320  30.4156891  53.4496224  45.9016510  41.0405664  54.6894267
  46.4456414  41.6535622  54.1949222  45.3203355  41.5985242  55.2061280
  32.2787944  32.4419118  39.0158886  32.5741385  31.5329796  38.9625940
  31.3775980  32.4206857  38.6939889  44.1874023  44.1626382  45.8209295
  44.0625162  43.3616122  45.3120240  44.8453114  44.6572575  45.3323265
  35.8082191  30.5175114  44.9986435  35.0868777  31.1311082  44.8593908
  36.5975447  31.0532879  44.9203081  46.2508931  41.9635402  47.4488845
  45.3039267  41.8440753  47.3767171  46.5991704  41.0757900  47.5315106
  38.6108505  27.8529541  51.2727087  39.1342907  28.0991837  52.0353396
  38.3920838  28.6849576  50.8530224  34.0075786  30.1233215  39.1398211
  33.6788492  29.2430594  38.9573317  34.3615156  30.0680884  40.0274601
  43.2555365  41.7588118  43.6493197  43.1080327  40.8304826  43.8300767
  44.0808858  41.7808209  43.1650272  37.1217609  30.4106185  39.5073689
  37.4613681  30.9392106  38.7852297  37.5689729  30.7486591  40.2832256
  39.8161050  28.7943236  48.9576757  39.4757870  27.9951049  49.3597437
  39.1100056  29.0944947  48.3853590  40.4677522  25.8792548  47.4104080
  41.2903591  25.4053027  47.2882971  40.7115585  26.6583032  47.9102766
  39.1085756  28.9080807  37.7066982  39.8294119  29.2862060  37.2030699
  38.4851060  29.6269684  37.8101960  43.2516879  29.6125956  38.6425314
  43.4680493  30.4950594  38.3414142  42.7710946  29.2212169  37.9130956
  37.9916100  32.5711669  45.2196059  37.8460681  32.8851972  46.1120340
  37.5141304  33.1896569  44.6666957  39.8512483  29.5614217  45.2676948
  39.8374052  28.6655310  44.9309246  40.5684911  29.5684881  45.9015234
  41.7038614  29.9951557  47.3130076  41.4456392  30.9168628  47.3114406
  41.1723654  29.5981992  48.0030540  46.6484803  43.1002344  40.0920161
  46.8221680  42.5348767  39.3394014  47.1413694  43.9003239  39.9099651
  32.4661763  35.1117013  48.1583720  31.9215231  35.8876821  48.2903994
  33.3441112  35.4587818  48.0002841  39.2549379  28.4428597  40.5364519
  39.3765290  27.5145243  40.7355406  38.9651422  28.4567283  39.6242834
  42.1240570  26.1283508  43.6731238  42.1462266  26.1922841  42.7183218
  42.5408629  25.2888016  43.8671745  52.5024194  35.8638767  41.7110461
  52.9455340  35.1146092  41.3129584  51.6250704  35.8548904  41.3284193
  47.6359975  42.4169109  37.1917059  48.3310880  43.0375801  37.4104374
  47.9783125  41.5664460  37.4669437  33.2527784  34.2386910  51.0513877
  32.5109520  34.3869545  51.6378507  32.9320529  34.4995175  50.1880626
  49.5351398  39.8668814  38.7204390  50.0602722  40.2056087  37.9953710
  49.4473751  38.9315830  38.5367525  41.1971447  43.7802888  50.8494267
  41.5058573  43.5352035  51.7216966  41.9946929  43.9849526  50.3613137
  33.6984398  42.1252338  43.0824271  34.5242418  41.8256110  42.7022915
  33.3478450  41.3559961  43.5314060  38.6665931  41.4778807  45.1521945
  38.0445941  40.8149512  44.8524173  39.3370798  41.5039939  44.4695593
  31.8993003  40.0438665  44.0413205  31.0624911  39.6160839  43.8597206
  31.8716649  40.2371108  44.9783996  38.7390459  29.9560595  54.7454451
  38.7878614  30.8322717  54.3632221  39.2812973  29.4137988  54.1726094
  49.2245304  40.5001718  54.0255588  48.4340848  40.4825857  53.4860088
  48.9878659  41.0390012  54.7804625  49.3443179  37.3494184  51.3388317
  49.3941184  37.1844192  52.2803840  49.2357103  36.4821443  50.9486198
  38.2279438  40.0282730  38.6280406  38.3767559  40.7118194  37.9747078
  39.0345882  40.0087820  39.1429861  46.6346942  33.3325112  52.6547623
  47.5356805  33.1931577  52.3631621  46.7094916  33.4979567  53.5945801
  40.9689747  30.7091967  51.5000810  40.0993057  31.0025533  51.2283398
  41.2049228  31.2932412  52.2208073  50.8461376  39.7691126  51.5830338
  50.5546185  40.1321106  52.4193799  50.2333508  39.0558134  51.4043670
  52.0457059  37.3344006  44.1032908  52.8803950  37.7733810  44.2670469
  52.1816187  36.8582659  43.2841154  49.0948565  34.8923740  50.0510396
  49.5702686  35.0851387  49.2429248  48.1714130  34.9482926  49.8053780
  35.9832071  36.0547908  39.6341475  35.7378113  35.1510238  39.8321685
  36.1527986  36.0565058  38.6920953  43.6728781  26.9271584  49.0166230
  44.1910725  27.6632611  48.6912719  43.3183914  27.2335577  49.8512989
  35.2527719  31.7876265  37.1327636  34.5596964  31.8620620  36.4767672
  35.0079471  31.0236609  37.6549153  43.9241375  23.3471867  44.5367127
  44.2043129  22.6795056  45.1627553  44.7091982  23.5400962  44.0241791
  41.7274844  42.5230860  36.0992153  41.1548811  43.1421048  35.6462625
  42.3007637  43.0730222  36.6332075  47.7950234  31.7689501  48.2838702
  48.7467656  31.8687598  48.3050926  47.6253684  30.9767769  48.7936786
  45.8164613  28.8545084  48.4698103  45.2214545  29.1350096  47.7744591
  45.5314310  29.3438985  49.2414844  44.9472103  42.8068011  37.2300735
  45.8802777  42.7413572  37.4333611  44.8595316  43.6424277  36.7715268
  47.5760120  42.1233881  34.1904683  47.4973752  41.7893744  35.0840441
  48.3969787  42.6155649  34.1896155  50.2738311  34.9895620  47.3981002
  50.2414631  34.0511621  47.5840685  50.8838935  35.0679657  46.6646826
  42.1121642  33.8591673  33.4408206  43.0580747  33.7297881  33.5096624
  41.7335887  33.1206335  33.9177634  50.4232800  31.7806664  47.4439285
  49.9071848  30.9965120  47.2569214  51.3072748  31.4525380  47.6085804
  48.0843527  25.5247679  43.4035097  47.8868348  25.2162767  44.2878429
  48.6943232  26.2509318  43.5333027  56.0914861  36.0511627  46.5387038
  56.8218250  35.7896915  47.0994742  55.4821807  35.3140349  46.5789106
  54.1730158  34.1919490  47.1361489  53.4463322  34.0575455  46.5277981
  53.7577445  34.4996318  47.9418208  41.9960335  37.9109419  54.9008863
  42.9163344  38.0888018  55.0948909  41.9609918  36.9665465  54.7488562
  40.2964559  31.7841650  33.3763091  39.3896015  31.4874762  33.4525804
  40.5740540  31.4871468  32.5097377  31.2142500  33.1048013  43.8262137
  30.8945284  32.2513321  43.5336511  30.6675928  33.3196591  44.5820104
  34.9922407  35.8210454  47.5431644  35.2108417  36.7527562  47.5619677
  35.4048181  35.4618428  48.3286448  41.9126625  26.3278539  39.5307332
  41.1027353  25.9825624  39.9062578  42.6011042  26.0186083  40.1194944
  43.8417173  25.4056586  41.1531629  44.3948212  25.8252040  41.8121652
  44.0787260  24.4792334  41.1954585  39.8650273  31.3943660  56.9334393
  39.7646999  32.3438017  56.8646484  39.6471815  31.0661899  56.0610463
  39.0663344  28.6428585  33.5175070  39.9282508  28.9683483  33.7770887
  39.2513688  27.8560081  33.0048136  31.0830760  36.7250924  45.7955259
  30.3894231  36.3104877  45.2825213  31.8303751  36.7671461  45.1988678
  47.2195980  27.5157111  40.6610293  46.6394649  28.1741915  40.2788345
  46.9531913  26.6934456  40.2497710  45.6699547  26.9162169  42.8631613
  46.1699325  27.0278703  42.0545932  46.3135155  26.6123222  43.5032422
  39.7281543  34.8240799  55.7499454  39.2448624  35.6241159  55.9563343
  39.8142482  34.8348743  54.7966898  32.9967502  36.6569178  43.6721274
  32.9738190  36.7556866  42.7203157  33.3068139  37.5034329  43.9938440
  35.6554880  38.7145333  47.7867888  36.6098134  38.6829276  47.7197820
  35.4567404  38.2535957  48.6018114  36.2454262  37.2846449  50.3538686
  37.0647151  37.7790528  50.3773523  36.5191070  36.3678417  50.3256253
  46.0020858  29.6757202  39.7166641  45.1146713  29.9606852  39.4986836
  46.4174848  29.5150965  38.8693918  49.3535395  29.7003723  43.4320980
  50.1295785  30.1900175  43.7045597  48.6283529  30.1261777  43.8892850
  51.7907953  30.4131342  44.4894921  52.3852444  30.1727078  43.7788229
  51.8634537  29.6938472  45.1168457  34.0105109  44.2564953  44.8038086
  33.8759577  43.4965354  44.2376084  33.5937171  44.9805853  44.3366875
  45.1464072  39.4401876  33.8114661  45.8499922  39.6451879  34.4272317
  44.4226721  40.0078638  34.0763745  45.9761882  35.1911738  39.9316931
  45.9197084  35.6480289  39.0924564  46.5290225  34.4302422  39.7539774
  49.7866688  30.9801469  40.7567051  49.5303622  30.5798105  41.5875259
  49.1619556  31.6945263  40.6317190  54.0979026  33.7197543  43.2638342
  53.5378584  33.7890732  44.0369904  53.4922529  33.5438527  42.5437839
  47.0550769  39.8784405  35.8613121  47.8896373  39.4465604  35.6790596
  46.8935112  39.7066419  36.7890016  46.7096661  36.3816519  37.2269461
  46.6545465  36.2160790  36.2857905  46.0842717  37.0892552  37.3831650
  31.4989176  31.6184583  51.0530883  32.1448040  31.1083537  51.5418108
  31.2906328  32.3553265  51.6274308  44.0242569  38.6865431  56.5523023
  44.8933728  38.8606083  56.1909658  43.5449320  39.5059847  56.4298753
  40.0192787  25.8824628  36.8054779  40.0071457  26.8266468  36.9623050
  40.9116209  25.6994773  36.5114240  39.9482351  44.5593518  44.8922536
  38.9977982  44.5595380  44.7786908  40.2514837  43.8126253  44.3758570
  43.8344906  22.4767404  41.0600716  43.0677302  21.9225891  41.2057398
  44.2455611  22.5489273  41.9214867  35.8386667  28.7652200  55.1505897
  36.7018129  28.4089005  55.3609222  35.2652078  28.4266095  55.8381301
  44.4132398  47.5383947  44.7076542  43.6231452  47.7941476  44.2316652
  44.9043645  48.3532285  44.8128582  48.3968168  42.1732917  56.1435869
  48.0035114  41.6199115  56.8183513  49.2134309  42.4843495  56.5342386
  45.3630226  53.6116775  40.0549438  45.8754747  54.4060025  40.2055003
  46.0152939  52.9143066  39.9883040  55.2593292  39.6171899  48.0120407
  54.9157562  40.5073541  47.9359517  55.6272255  39.4273557  47.1489992
  43.3279143  51.9405429  40.8309009  44.1654365  52.3502438  40.6142717
  43.5057410  51.0004872  40.8009203  51.6028910  51.4578036  32.9980550
  50.6955972  51.2267289  33.1971699  52.0999942  50.6615655  33.1854532
  57.0580958  38.8765458  43.1138144  57.3639835  38.0162822  42.8264060
  57.7833563  39.4683078  42.9137138  43.3505314  49.2796145  41.5019742
  43.1529714  48.6865505  40.7770809  42.7951978  48.9748355  42.2195681
  45.7637089  45.3314991  41.7738936  46.0243906  46.2460325  41.6648097
  46.5854261  44.8639434  41.9235549  48.3903005  46.1769180  33.5745981
  47.5132471  46.0557981  33.2108227  48.8660758  45.3855259  33.3224869
  44.7139867  45.8536536  48.0972511  44.6298056  45.2462206  47.3622921
  43.8922574  46.3445555  48.0982008  46.8663883  43.8911474  49.4367497
  46.9305210  44.7526305  49.0244895  46.8031004  43.2785475  48.7039856
  46.3416156  45.9634606  53.0840531  46.9688195  45.5811684  53.6978056
  45.4844075  45.7448808  53.4496224  43.1181699  47.7711035  39.0158886
  43.4135140  46.8621714  38.9625940  42.2169734  47.7498775  38.6939889
  44.8469540  45.4525133  39.1398211  44.5182246  44.5722512  38.9573317
  45.2008911  45.3972802  40.0274601  54.7635130  38.6763784  44.5367127
  55.0436883  38.0086973  45.1627553  55.5485737  38.8692880  44.0241791
  52.9515397  49.1883591  33.4408206  53.8974501  49.0589799  33.5096624
  52.5729642  48.4498253  33.9177634  52.7520380  41.6570457  39.5307332
  51.9421108  41.3117542  39.9062578  53.4404796  41.3478001  40.1194944
  54.6810928  40.7348504  41.1531629  55.2341966  41.1543957  41.8121652
  54.9181014  39.8084252  41.1954585  49.9057098  43.9720502  33.5175070
  50.7676262  44.2975401  33.7770887  50.0907443  43.1851998  33.0048136
  58.0589735  42.8449029  40.6610293  57.4788404  43.5033833  40.2788345
  57.7925668  42.0226374  40.2497710  42.3382931  46.9476501  51.0530883
  42.9841795  46.4375455  51.5418108  42.1300082  47.6845182  51.6274308
  50.8586541  41.2116545  36.8054779  50.8465211  42.1558385  36.9623050
  51.7509963  41.0286691  36.5114240  54.6738661  37.8059322  41.0600716
  53.9071057  37.2517809  41.2057398  55.0849366  37.8781191  41.9214867
  46.6780422  44.0944118  55.1505897  47.5411884  43.7380923  55.3609222
  46.1045833  43.7558013  55.8381301  67.0203971  68.7494752  45.3319758
  66.3912833  68.9140466  44.6295826  66.6329633  69.1636361  46.1030722
  70.8993202  69.6849190  42.6864122  70.2144241  70.0648091  42.1361155
  70.9837052  70.2944516  43.4196069  77.3595955  66.5519852  43.8066794
  76.6059663  65.9827251  43.6510798  77.4943496  66.5182517  44.7537429
  66.4744298  72.3259621  51.6403257  66.4562773  73.1468502  51.1483526
  67.3964218  72.2013696  51.8653398  69.2762910  67.1638764  45.1112623
  68.6186585  67.8538025  45.1992752  70.0803310  67.5535196  45.4546610
  65.3490743  75.4967461  35.9177236  64.6752442  75.7999157  36.5262194
  65.7356565  76.2996541  35.5682693  68.8530165  70.4989138  41.2895708
  68.3992493  69.6580048  41.3460898  68.2224132  71.1350536  41.6270488
  67.2963105  72.3365634  42.2245526  67.5886079  72.8970692  41.5057892
  67.8061725  72.6294195  42.9798685  71.4629480  68.7725016  45.9280209
  71.8965987  68.6800305  46.7763263  72.1761061  68.7482516  45.2900225
  65.1957375  72.3727110  47.4613309  65.2494397  72.9418046  48.2291025
  64.3272156  72.5428995  47.0967347  72.3245030  68.8148717  48.4613094
  72.5180920  69.7194527  48.7072369  72.2245648  68.3556136  49.2951679
  63.5481959  75.6647133  38.1324315  63.7233714  75.1935176  38.9469938
  62.8614747  76.2912899  38.3605576  69.0952345  71.9974582  52.1130457
  69.0364891  71.3133802  51.4461040  69.4971863  72.7393572  51.6611083
  62.4160685  73.8587388  40.8208501  61.6328207  74.4009068  40.9146726
  63.1153431  74.3761368  41.2202742  73.5787093  65.3722383  45.1060998
  73.5676969  66.2547099  44.7354931  72.7104472  65.0193934  44.9115535
  68.2635899  70.6114846  38.5717316  68.5395743  70.4971440  39.4811190
  67.3940397  70.2132330  38.5329489  64.8989963  74.8601196  42.2150130
  65.0812357  74.0422852  42.6777882  65.7222949  75.0768889  41.7775020
  65.2332128  73.7869381  39.4765178  65.7619895  73.2761836  38.8635340
  65.4960348  73.4711912  40.3410711  65.8661532  74.8210217  45.8209295
  65.7412671  74.0199957  45.3120240  66.5240623  75.3156411  45.3323265
  67.9296440  72.6219237  47.4488845  66.9826776  72.5024588  47.3767171
  68.2779213  71.7341735  47.5315106  64.9342874  72.4171954  43.6493197
  64.7867836  71.4888661  43.8300767  65.7596367  72.4392044  43.1650272
  68.5376995  73.2400512  44.7358070  69.4623543  73.0343374  44.5982521
  68.3692299  72.9916913  45.6447411  68.3272312  73.7586180  40.0920161
  68.5009189  73.1932602  39.3394014  68.8201203  74.5587075  39.9099651
  74.1811703  66.5222603  41.7110461  74.6242849  65.7729928  41.3129584
  73.3038213  66.5132739  41.3284193  69.3147484  73.0752944  37.1917059
  70.0098389  73.6959637  37.4104374  69.6570634  72.2248295  37.4669437
  71.2138907  70.5252650  38.7204390  71.7390231  70.8639922  37.9953710
  71.1261260  69.5899665  38.5367525  70.9032813  71.1585553  54.0255588
  70.1128357  71.1409692  53.4860088  70.6666168  71.6973847  54.7804625
  72.5248885  70.4274961  51.5830338  72.2333694  70.7904942  52.4193799
  71.9121017  69.7141969  51.4043670  73.7244568  67.9927841  44.1032908
  74.5591459  68.4317645  44.2670469  73.8603696  67.5166494  43.2841154
  66.6259612  73.4651846  37.2300735  67.5590286  73.3997408  37.4333611
  66.5382825  74.3008113  36.7715268  69.2547629  72.7817716  34.1904683
  69.1761261  72.4477580  35.0840441  70.0757296  73.2739484  34.1896155
  71.9525820  65.6479456  47.3981002  71.9202140  64.7095456  47.5840685
  72.5626444  65.7263492  46.6646826  77.7702370  66.7095462  46.5387038
  78.5005759  66.4480751  47.0994742  77.1609316  65.9724184  46.5789106
  75.8517667  64.8503325  47.1361489  75.1250831  64.7159290  46.5277981
  75.4364954  65.1580154  47.9418208  66.8251581  70.0985712  33.8114661
  67.5287431  70.3035714  34.4272317  66.1014230  70.6662474  34.0763745
  71.4654197  61.6385305  40.7567051  71.2091131  61.2381940  41.5875259
  70.8407065  62.3529099  40.6317190  75.7766535  64.3781378  43.2638342
  75.2166093  64.4474567  44.0369904  75.1710038  64.2022363  42.5437839
  68.7338278  70.5368241  35.8613121  69.5683882  70.1049439  35.6790596
  68.5722621  70.3650255  36.7890016  77.3622553  81.0537892  45.9568298
  78.0000963  80.9344639  45.2531638  77.2443396  82.0018736  46.0156250
  74.1712260  81.0065320  45.8929823  73.8330771  80.8906385  45.0050358
  75.0402028  80.6056485  45.8730829  70.0299075  82.8600796  41.8826714
  69.4663940  82.7690733  41.1143001  69.9151470  82.0400701  42.3629206
  74.6532043  82.1600172  51.8516028  74.6420683  81.7652970  50.9796532
  74.8152682  81.4266244  52.4449800  67.5763507  84.3551988  44.7210934
  68.3684799  84.0142813  44.3057233  67.8160157  84.4646963  45.6413087
  75.6098634  86.5271764  37.1941179  74.9586614  87.1125845  36.8075192
  76.4042997  87.0577959  37.2536216  69.5354261  83.6160901  37.5928313
  70.3085137  83.0689888  37.4541189  69.8879660  84.4805151  37.8042774
  71.3739304  84.9437284  50.7995212  71.0829170  85.8482914  50.6841879
  72.0096288  84.9853811  51.5139282  72.2995511  82.3214132  47.3896572
  72.8959083  82.0970155  46.6753535  72.3570482  81.5798878  47.9922020
  71.8720539  79.7753567  35.2246763  72.1246060  79.2535089  34.4630226
  70.9345098  79.6119713  35.3273446  76.9163822  78.7789346  43.0321506
  77.7026911  78.3608769  42.6811923  77.1802526  79.6835438  43.2003154
  77.0873899  84.2162196  37.7310163  76.4519732  84.2896823  38.4431068
  76.7571306  84.8055795  37.0529242  82.3172249  78.7164579  43.9354485
  83.0497421  78.1463796  44.1692314  81.5611605  78.3286179  44.3760990
  71.5916828  81.6781673  37.4271138  71.4753086  81.0026577  38.0952222
  71.7019088  81.1914047  36.6103291  73.9348369  81.1391821  41.1317827
  73.5706576  80.6122441  41.8430748  74.7915485  80.7490290  40.9584312
  79.8397669  72.4286153  48.3949093  79.5080994  73.2981564  48.1710308
  79.2443283  72.1122437  49.0743124  73.5753856  76.1681720  36.1279176
  73.7428258  77.0361957  36.4949647  73.3851025  76.3309002  35.2040465
  76.3329189  84.6298699  47.7945006  76.0329912  85.5323738  47.6860813
  75.9880248  84.3630882  48.6466159  69.7841670  81.0812496  43.8281710
  68.8592167  80.9488710  44.0359402  70.0326084  81.8606715  44.3251653
  79.7326333  77.1481239  45.4742443  78.8243210  77.0796648  45.1801204
  79.6813928  77.6253184  46.3024269  73.5543077  78.6239378  37.1125842
  73.4342702  79.0696428  37.9511323  72.8595665  78.9724695  36.5539381
  67.1450481  80.7245769  44.6625499  67.2742863  80.9780248  45.5764911
  66.4647933  81.3173477  44.3430154  71.3149969  91.3943019  40.7615974
  71.2373998  92.3450845  40.8404454  70.7111612  91.0488892  41.4190900
  73.8067198  78.5670885  53.4177341  73.0300533  79.1264805  53.4080205
  74.4457761  79.0527668  53.9392211  81.5987979  75.3497678  47.2520317
  80.9562359  75.6430211  46.6060112  81.0942908  75.2350598  48.0573514
  79.2528143  79.0960851  37.9406176  80.1645999  79.3288238  37.7653874
  78.7437790  79.6797895  37.3781255  72.0613571  81.3756338  52.9795308
  72.8028255  81.9141382  52.7030131  71.3550556  82.0022627  53.1366859
  77.5368910  83.5185479  51.5767469  77.9452266  83.0767889  50.8322101
  76.8146172  82.9438106  51.8301662  73.8899980  78.4558085  48.9501026
  74.7361176  78.8797499  49.0935675  73.8298618  77.7991710  49.6439589
  77.8597725  84.0786669  45.3319758  77.2306587  84.2432383  44.6295826
  77.4723387  84.4928279  46.1030722  81.7386957  85.0141107  42.6864122
  81.0537995  85.3940009  42.1361155  81.8230806  85.6236434  43.4196069
  77.0399426  76.1162454  50.6082200  76.7960358  76.8704514  50.0716475
  77.3159356  76.4947801  51.4429447  78.9937889  82.6601066  49.2859465
  79.2054784  83.3032826  48.6093846  78.9467637  81.8263383  48.8181395
  76.5964117  75.2718887  46.1896037  75.7348597  75.5700140  46.4812775
  76.6226552  75.4889286  45.2577070  73.4125687  83.8161077  42.5969843
  73.8764032  84.0948780  41.8074465  73.1482485  82.9144522  42.4142934
  70.3049768  83.3632559  45.5349606  70.8751125  83.7919827  44.8967091
  70.8957880  83.0815144  46.2333792  72.3494573  79.9384230  39.4059408
  73.0518616  80.3905273  39.8733334  72.0175201  79.2968049  40.0339301
  70.7974934  78.5295986  53.7810617  70.1673595  79.2112267  54.0146014
  70.6911022  78.4179068  52.8363756  80.1083716  85.5373022  47.4581823
  80.9301160  85.1353209  47.1764504  80.1046119  85.4341256  48.4097938
  68.0434652  78.5612362  41.6660018  67.2465816  78.6731056  42.1843514
  67.8160245  78.8999014  40.8000909  73.8740320  85.0857065  49.6142533
  73.9384752  85.5477472  50.4500705  73.1651244  84.4554430  49.7424843
  88.1989710  81.8811770  43.8066794  87.4453418  81.3119168  43.6510798
  88.3337251  81.8474435  44.7537429  73.5888338  86.7525172  39.4821513
  73.4534012  87.5976708  39.9106361  74.1298150  86.9544450  38.7187447
  67.0417735  84.2700610  40.0549438  67.5542256  85.0643861  40.2055003
  67.6940448  83.5726901  39.9883040  68.8512620  87.3866367  42.1372192
  69.0279248  88.3084331  41.9493175  69.6469453  87.0724786  42.5666571
  72.9923638  74.2474631  53.7356125  73.7333352  74.8481784  53.6560588
  73.2241561  73.5052269  53.1774168  68.1364976  79.4330999  52.0134355
  68.0218491  78.5316256  52.3141454  67.2809494  79.6794695  51.6619171
  75.2156814  87.3748739  53.6121855  74.7720668  86.5885117  53.2942760
  75.8774028  87.5627889  52.9465746  69.9743935  88.9044541  48.1382534
  70.5251360  88.7761604  47.3659528  69.1355411  89.2039430  47.7877427
  77.3138052  87.6551539  51.6403257  77.2956527  88.4760420  51.1483526
  78.2357972  87.5305614  51.8653398  73.7711106  85.1695668  52.4826765
  74.3039443  84.4083957  52.2526073  73.2425187  84.8769320  53.2250920
  76.9380801  70.2755734  48.0120407  76.5945071  71.1657376  47.9359517
  77.3059764  70.0857392  47.1489992  65.0066652  82.5989265  40.8309009
  65.8441874  83.0086273  40.6142717  65.1844919  81.6588707  40.8009203
  76.9031084  80.2664345  36.5192842  76.3877707  81.0368950  36.7581229
  76.6308392  79.5929482  37.1425903  76.0177342  72.6460389  45.9769640
  75.5142137  72.6090525  45.1637445  76.3107948  73.5553132  46.0366297
  72.2620227  72.7299119  44.9835822  73.1273224  72.5341928  44.6241711
  72.3297736  72.5009471  45.9105179  81.8765358  83.0196700  38.4546015
  81.0994801  82.6807860  38.0101177  82.5556839  83.0249323  37.7800980
  76.6917387  78.1391437  38.3452623  76.3867523  78.4537587  39.1962766
  77.6447829  78.2172857  38.3879956  75.1363819  84.2981661  39.9945577
  74.6085180  83.5634420  39.6818815  74.6351322  85.0756337  39.7485545
  80.1156665  82.4930681  45.1112623  79.4580339  83.1829943  45.1992752
  80.9197064  82.8827113  45.4546610  69.8682547  74.9601327  42.3552189
  70.4426298  74.7376509  41.6225382  70.4553529  75.0290022  43.1080790
  78.9262124  80.8475054  43.1616565  79.4394005  81.4805046  43.6638275
  79.5763348  80.2476249  42.7959925  70.1952134  76.9905788  36.3748074
  69.3589446  77.3280475  36.6957349  70.0556903  76.8554768  35.4375211
  72.1705214  71.8342576  41.0827258  71.5169627  71.5191593  40.4583873
  72.1285688  71.2118316  41.8087081  73.2816419  82.1161871  32.9980550
  72.3743481  81.8851125  33.1971699  73.7787451  81.3199490  33.1854532
  76.1884498  90.8259378  35.9177236  75.5146197  91.1291075  36.5262194
  76.5750320  91.6288459  35.5682693  75.4042955  78.3224510  45.4074906
  74.4865516  78.5439457  45.2496594  75.8203098  78.3970820  44.5486613
  76.1878002  79.7215925  40.5377586  76.9349821  80.2337322  40.2284708
  76.4569592  79.3999978  41.3981979  74.4604653  82.2174466  37.5204540
  73.5515872  81.9333499  37.6177010  74.4899736  82.6373545  36.6607847
  79.6923920  85.8281055  41.2895708  79.2386247  84.9871965  41.3460898
  79.0617887  86.4642454  41.6270488  78.6356839  76.7573041  42.5196375
  77.8979596  76.2450428  42.8506618  78.8883613  76.3173423  41.7079652
  78.1356859  87.6657552  42.2245526  78.4279834  88.2262609  41.5057892
  78.6455480  87.9586113  42.9798685  78.7368467  69.5349293  43.1138144
  79.0427344  68.6746657  42.8264060  79.4621072  70.1266914  42.9137138
  73.0089547  79.8303087  43.6214336  73.0638156  78.8776923  43.5456812
  72.1980749  79.9862526  44.1055634  74.1580740  83.7583210  34.8592619
  73.7200170  83.0419069  34.3998256  74.8991181  83.9859324  34.2977710
  70.9481906  78.4480146  41.3804714  70.1349772  78.7474317  41.7869907
  71.4440901  78.0535835  42.0979197  73.0990484  88.4437903  43.3138979
  73.0566663  88.6698750  42.3847511  74.0153183  88.2101278  43.4624780
  76.5456118  78.9121971  50.2119608  76.9005506  79.1393444  51.0714074
  77.1928249  79.2440348  49.5896864  82.2753855  82.0340407  40.9168937
  82.1371754  82.2242003  39.9890127  81.9190074  82.7959789  41.3736988
  82.3023235  84.1016934  45.9280209  82.7359741  84.0092223  46.7763263
  83.0154815  84.0774434  45.2900225  71.2156285  85.3200932  43.1100942
  72.0096884  84.8251252  42.9083517  70.5047978  84.7918795  42.7468647
  76.0351130  87.7019028  47.4613309  76.0888152  88.2709964  48.2291025
  75.1665911  87.8720913  47.0967347  67.5239049  79.4644014  39.1860695
  66.5936637  79.4028469  39.4030657  67.6196521  78.9419967  38.3897336
  67.4424598  75.9898827  41.7738936  67.7031415  76.9044160  41.6648097
  68.2641770  75.5223269  41.9235549  68.9149523  77.4036584  48.9437761
  69.5872576  77.1953946  48.2950410  68.0879310  77.2058670  48.5042993
  83.1638784  84.1440634  48.4613094  83.3574674  85.0486445  48.7072369
  83.0639402  83.6848053  49.2951679  74.8175095  74.0298525  50.9603422
  74.1703010  74.7288475  50.8667898  75.5876110  74.4634669  51.3279670
  78.2253893  84.2947377  54.0353975  78.0739399  84.0657929  53.1184059
  78.2158572  85.2517978  54.0485320  74.9939229  81.8679290  49.0200241
  75.9231289  82.0190449  48.8469209  74.5730259  81.9563311  48.1648888
  73.7927561  85.8929954  46.7898779  73.6538647  85.5248739  47.6624717
  73.0042157  86.4077594  46.6182737  74.3875713  90.9939051  38.1324315
  74.5627469  90.5227094  38.9469938  73.7008501  91.6204817  38.3605576
  75.3432776  85.2711557  44.1787617  75.0082609  85.2312327  45.0745267
  74.8436722  84.6056273  43.7058027  69.3177020  80.6779187  49.7040198
  69.1796818  79.9459426  50.3051737  70.2281944  80.5888087  49.4224386
  78.2791968  82.6167591  34.4524676  77.6621139  81.8914419  34.3557729
  77.8108456  83.3776952  34.1091751  71.9459321  80.3899146  49.1923878
  72.6558939  79.7492338  49.1510496  71.9028629  80.6412041  50.1150058
  79.9346100  87.3266500  52.1130457  79.8758646  86.6425720  51.4461040
  80.3365618  88.0685490  51.6611083  70.6588255  77.3764364  51.0119517
  70.1225612  76.9255103  51.6641113  70.0704963  77.5110273  50.2689981
  68.9536798  94.1428413  44.9064176  69.1933397  94.7746938  45.5843194
  68.1105995  93.7916453  45.1929535  70.0690514  76.8353016  33.5745981
  69.1919980  76.7141816  33.2108227  70.5448267  76.0439094  33.3224869
  79.9363507  85.2906084  50.3444436  79.0490286  84.9532005  50.4670835
  80.5062058  84.5589115  50.5813202  66.3927376  76.5120372  48.0972511
  66.3085565  75.9046041  47.3622921  65.5710083  77.0029390  48.0982008
  73.4664660  89.9507536  47.3105680  73.3934832  90.7562507  47.8224984
  73.0242053  90.1499502  46.4853701  73.2554440  89.1879306  40.8208501
  72.4721962  89.7300986  40.9146726  73.9547185  89.7053286  41.2202742
  76.5651090  74.9973935  43.4642707  77.0619790  74.2443898  43.1443777
  75.7938071  75.0338252  42.8985916  84.4180847  80.7014301  45.1060998
  84.4070724  81.5839016  44.7354931  83.5498227  80.3485852  44.9115535
  75.9263344  89.8494370  49.4663838  76.6391316  90.4841835  49.3939740
  75.4353372  89.9458236  48.6503840  77.6480871  83.7545623  41.0381130
  76.7137149  83.8747085  40.8685834  77.8257539  82.8518089  40.7741140
  73.1486059  77.1391318  43.1914391  72.7783846  76.5862359  43.8795297
  73.6445151  76.5349452  42.6389391  81.0353422  79.5962942  41.5731164
  81.5013874  80.4290933  41.4991467  81.4860923  79.1307923  42.2776423
  70.9775257  87.5988813  50.2869409  71.6784717  88.2325296  50.4398803
  70.5070372  87.9403545  49.5265048  79.1029653  85.9406763  38.5717316
  79.3789497  85.8263358  39.4811190  78.2334152  85.5424248  38.5329489
  79.0070085  71.9643529  45.6122065  78.0933165  72.1947756  45.7804272
  79.4363186  72.0481973  46.4636098  78.7776543  80.1533421  48.1121959
  78.1247994  80.4009328  47.4574412  79.1556923  79.3397559  47.7784437
  75.7383717  90.1893114  42.2150130  75.9206112  89.3714770  42.6777882
  76.5616703  90.4060806  41.7775020  76.0725883  89.1161299  39.4765178
  76.6013649  88.6053754  38.8635340  76.3354102  88.8003829  40.3410711
  74.8264116  80.8953232  54.5987997  74.1504753  80.7947361  55.2690372
  75.6491750  80.7392446  55.0623994  66.5742975  87.1325168  47.2200512
  67.1596412  86.3868856  47.3528416  66.3767814  87.4429125  48.1037176
  69.4281631  90.1676416  42.2362954  68.7592006  90.6522543  41.7526994
  69.2894500  90.4145636  43.1506333  73.5686899  92.2020159  48.8345613
  74.1205207  92.3651781  49.5994698  73.9093093  92.7924597  48.1625637
  68.5451392  74.5495309  49.4367497  68.6092719  75.4110140  49.0244895
  68.4818513  73.9369311  48.7039856  68.0203665  76.6218442  53.0840531
  68.6475704  76.2395519  53.6978056  67.1631584  76.4032644  53.4496224
  78.4197773  87.0281417  54.6894267  78.9637677  87.6411375  54.1949222
  77.8384618  87.5860995  55.2061280  64.7969208  78.4294871  39.0158886
  65.0922649  77.5205549  38.9625940  63.8957243  78.4082610  38.6939889
  76.7055286  90.1502135  45.8209295  76.5806426  89.3491875  45.3120240
  77.3634378  90.6448328  45.3323265  68.3263455  76.5050867  44.9986435
  67.6050040  77.1186835  44.8593908  69.1156710  77.0408632  44.9203081
  78.7690195  87.9511155  47.4488845  77.8220530  87.8316506  47.3767171
  79.1172968  87.0633653  47.5315106  71.1289768  73.8405294  51.2727087
  71.6524170  74.0867590  52.0353396  70.9102101  74.6725329  50.8530224
  66.5257049  76.1108968  39.1398211  66.1969755  75.2306347  38.9573317
  66.8796420  76.0556637  40.0274601  75.7736628  87.7463871  43.6493197
  75.6261591  86.8180579  43.8300767  76.5990122  87.7683962  43.1650272
  69.6398872  76.3981938  39.5073689  69.9794945  76.9267860  38.7852297
  70.0870993  76.7362344  40.2832256  79.3770750  88.5692430  44.7358070
  80.3017297  88.3635291  44.5982521  79.2086053  88.3208831  45.6447411
  72.3342313  74.7818989  48.9576757  71.9939134  73.9826802  49.3597437
  71.6281320  75.0820700  48.3853590  72.9858785  71.8668301  47.4104080
  73.8084854  71.3928780  47.2882971  73.2296849  72.6458785  47.9102766
  71.6267020  74.8956560  37.7066982  72.3475382  75.2737813  37.2030699
  71.0032324  75.6145437  37.8101960  75.7698142  75.6001709  38.6425314
  75.9861757  76.4826347  38.3414142  75.2892210  75.2087922  37.9130956
  70.5097364  78.5587422  45.2196059  70.3641945  78.8727725  46.1120340
  70.0322567  79.1772322  44.6666957  72.3693747  75.5489970  45.2676948
  72.3555315  74.6531063  44.9309246  73.0866175  75.5560634  45.9015234
  74.2219877  75.9827310  47.3130076  73.9637655  76.9044381  47.3114406
  73.6904918  75.5857745  48.0030540  79.1666066  89.0878097  40.0920161
  79.3402944  88.5224520  39.3394014  79.6594957  89.8878992  39.9099651
  64.9843026  81.0992766  48.1583720  64.4396494  81.8752574  48.2903994
  65.8622376  81.4463571  48.0002841  71.7730643  74.4304350  40.5364519
  71.8946554  73.5020996  40.7355406  71.4832685  74.4443036  39.6242834
  74.6421833  72.1159261  43.6731238  74.6643530  72.1798594  42.7183218
  75.0589892  71.2763769  43.8671745  85.0205457  81.8514520  41.7110461
  85.4636603  81.1021846  41.3129584  84.1431968  81.8424657  41.3284193
  80.1541239  88.4044862  37.1917059  80.8492143  89.0251554  37.4104374
  80.4964389  87.5540213  37.4669437  65.7709048  80.2262663  51.0513877
  65.0290784  80.3745298  51.6378507  65.4501792  80.4870928  50.1880626
  82.0532662  85.8544567  38.7204390  82.5783986  86.1931840  37.9953710
  81.9655014  84.9191583  38.5367525  73.7152710  89.7678641  50.8494267
  74.0239837  89.5227788  51.7216966  74.5128193  89.9725279  50.3613137
  73.7373323  91.9216551  43.0799643  73.2978313  91.4292929  43.7732500
  74.4881439  91.3789518  42.8391719  66.2165662  88.1128091  43.0824271
  67.0423681  87.8131863  42.7022915  65.8659714  87.3435714  43.5314060
  71.1847195  87.4654560  45.1521945  70.5627204  86.8025265  44.8524173
  71.8552062  87.4915692  44.4695593  64.4174267  86.0314418  44.0413205
  63.5806175  85.6036592  43.8597206  64.3897912  86.2246861  44.9783996
  71.2571722  75.9436348  54.7454451  71.3059878  76.8198470  54.3632221
  71.7994236  75.4013741  54.1726094  81.7426568  86.4877471  54.0255588
  80.9522112  86.4701610  53.4860088  81.5059922  87.0265765  54.7804625
  81.8624443  83.3369937  51.3388317  81.9122448  83.1719945  52.2803840
  81.7538366  82.4697196  50.9486198  70.7460702  86.0158483  38.6280406
  70.8948822  86.6993947  37.9747078  71.5527145  85.9963573  39.1429861
  79.1528205  79.3200865  52.6547623  80.0538068  79.1807330  52.3631621
  79.2276180  79.4855320  53.5945801  73.4871011  76.6967720  51.5000810
  72.6174320  76.9901286  51.2283398  73.7230491  77.2808165  52.2208073
  83.3642640  85.7566879  51.5830338  83.0727448  86.1196859  52.4193799
  82.7514771  85.0433887  51.4043670  84.5638322  83.3219759  44.1032908
  85.3985213  83.7609563  44.2670469  84.6997451  82.8458412  43.2841154
  81.6129828  80.8799493  50.0510396  82.0883950  81.0727140  49.2429248
  80.6895393  80.9358679  49.8053780  68.5013335  82.0423661  39.6341475
  68.2559377  81.1385991  39.8321685  68.6709249  82.0440811  38.6920953
  76.1910044  72.9147337  49.0166230  76.7091988  73.6508364  48.6912719
  75.8365177  73.2211330  49.8512989  67.7708982  77.7752018  37.1327636
  67.0778227  77.8496373  36.4767672  67.5260734  77.0112362  37.6549153
  76.4422639  69.3347620  44.5367127  76.7224392  68.6670809  45.1627553
  77.2273246  69.5276715  44.0241791  74.2456107  88.5106613  36.0992153
  73.6730074  89.1296801  35.6462625  74.8188901  89.0605975  36.6332075
  80.3131497  77.7565254  48.2838702  81.2648920  77.8563351  48.3050926
  80.1434947  76.9643522  48.7936786  78.3345876  74.8420837  48.4698103
  77.7395809  75.1225849  47.7744591  78.0495573  75.3314738  49.2414844
  77.4653367  88.7943764  37.2300735  78.3984040  88.7289325  37.4333611
  77.3776580  89.6300030  36.7715268  80.0941384  88.1109634  34.1904683
  80.0155015  87.7769498  35.0840441  80.9151050  88.6031402  34.1896155
  82.7919575  80.9771373  47.3981002  82.7595895  80.0387374  47.5840685
  83.4020198  81.0555410  46.6646826  74.6302906  79.8467426  33.4408206
  75.5762010  79.7173634  33.5096624  74.2517151  79.1082088  33.9177634
  82.9414063  77.7682417  47.4439285  82.4253112  76.9840873  47.2569214
  83.8254012  77.4401133  47.6085804  80.6024790  71.5123432  43.4035097
  80.4049611  71.2038520  44.2878429  81.2124496  72.2385071  43.5333027
  88.6096125  82.0387380  46.5387038  89.3399513  81.7772668  47.0994742
  88.0003070  81.3016102  46.5789106  86.6911422  80.1795243  47.1361489
  85.9644585  80.0451208  46.5277981  86.2758709  80.4872071  47.9418208
  74.5141598  83.8985172  54.9008863  75.4344608  84.0763771  55.0948909
  74.4791181  82.9541218  54.7488562  72.8145823  77.7717403  33.3763091
  71.9077278  77.4750515  33.4525804  73.0921804  77.4747221  32.5097377
  67.5103671  81.8086207  47.5431644  67.7289680  82.7403315  47.5619677
  67.9229445  81.4494181  48.3286448  74.4307889  72.3154292  39.5307332
  73.6208617  71.9701377  39.9062578  75.1192305  72.0061836  40.1194944
  76.3598437  71.3932339  41.1531629  76.9129475  71.8127793  41.8121652
  76.5968523  70.4668087  41.1954585  72.3831536  77.3819413  56.9334393
  72.2828263  78.3313770  56.8646484  72.1653078  77.0537652  56.0610463
  71.5844607  74.6304338  33.5175070  72.4463771  74.9559236  33.7770887
  71.7694952  73.8435834  33.0048136  63.6012023  82.7126677  45.7955259
  62.9075495  82.2980630  45.2825213  64.3485014  82.7547214  45.1988678
  79.7377244  73.5032864  40.6610293  79.1575913  74.1617668  40.2788345
  79.4713177  72.6810209  40.2497710  78.1880810  72.9037922  42.8631613
  78.6880589  73.0154457  42.0545932  78.8316418  72.5998975  43.5032422
  72.2462806  80.8116552  55.7499454  71.7629888  81.6116912  55.9563343
  72.3323745  80.8224496  54.7966898  65.5148766  82.6444931  43.6721274
  65.4919454  82.7432619  42.7203157  65.8249402  83.4910082  43.9938440
  68.1736144  84.7021086  47.7867888  69.1279397  84.6705029  47.7197820
  67.9748667  84.2411710  48.6018114  68.7635526  83.2722202  50.3538686
  69.5828415  83.7666281  50.3773523  69.0372333  82.3554170  50.3256253
  78.5202122  75.6632955  39.7166641  77.6327977  75.9482605  39.4986836
  78.9356111  75.5026718  38.8693918  81.8716658  75.6879476  43.4320980
  82.6477048  76.1775928  43.7045597  81.1464792  76.1137530  43.8892850
  84.3089217  76.4007095  44.4894921  84.9033707  76.1602831  43.7788229
  84.3815800  75.6814225  45.1168457  66.5286372  90.2440706  44.8038086
  66.3940840  89.4841107  44.2376084  66.1118435  90.9681606  44.3366875
  77.6645335  85.4277629  33.8114661  78.3681185  85.6327632  34.4272317
  76.9407984  85.9954391  34.0763745  78.4943146  81.1787491  39.9316931
  78.4378347  81.6356042  39.0924564  79.0471488  80.4178175  39.7539774
  82.3047952  76.9677222  40.7567051  82.0484886  76.5673858  41.5875259
  81.6800820  77.6821016  40.6317190  86.6160289  79.7073296  43.2638342
  86.0559847  79.7766485  44.0369904  86.0103793  79.5314280  42.5437839
  69.6855498  91.1410023  45.0156529  69.5687882  92.0855455  44.9135219
  68.8647945  90.8383584  45.4042328  79.5732033  85.8660159  35.8613121
  80.4077637  85.4341357  35.6790596  79.4116376  85.6942172  36.7890016
  79.2277925  82.3692272  37.2269461  79.1726729  82.2036543  36.2857905
  78.6023980  83.0768305  37.3831650  64.0170440  77.6060336  51.0530883
  64.6629304  77.0959290  51.5418108  63.8087591  78.3429018  51.6274308
  76.5423832  84.6741184  56.5523023  77.4114992  84.8481836  56.1909658
  76.0630584  85.4935601  56.4298753  72.5374050  71.8700381  36.8054779
  72.5252720  72.8142221  36.9623050  73.4297472  71.6870526  36.5114240
  70.7110012  91.7938285  48.2312457  71.6137259  91.8261895  48.5478952
  70.4847382  90.8638736  48.2458793  72.4663614  90.5469271  44.8922536
  71.5159245  90.5471133  44.7786908  72.7696101  89.8002006  44.3758570
  76.3526170  68.4643157  41.0600716  75.5858566  67.9101644  41.2057398
  76.7636875  68.5365026  41.9214867  68.3567931  74.7527953  55.1505897
  69.2199392  74.3964758  55.3609222  67.7833342  74.4141848  55.8381301
  88.2016308  96.3829810  45.9568298  88.8394718  96.2636557  45.2531638
  88.0837151  97.3310654  46.0156250  85.0106014  96.3357238  45.8929823
  84.6724526  96.2198302  45.0050358  85.8795782  95.9348403  45.8730829
  80.8692830  98.1892714  41.8826714  80.3057695  98.0982651  41.1143001
  80.7545225  97.3692619  42.3629206  85.4925797  97.4892089  51.8516028
  85.4814438  97.0944888  50.9796532  85.6546437  96.7558162  52.4449800
  78.4157262  99.6843906  44.7210934  79.2078554  99.3434730  44.3057233
  78.6553912  99.7938881  45.6413087  86.4492389 101.8563682  37.1941179
  85.7980368 102.4417762  36.8075192  87.2436751 102.3869877  37.2536216
  80.3748016  98.9452819  37.5928313  81.1478892  98.3981806  37.4541189
  80.7273415  99.8097068  37.8042774  82.2133058 100.2729201  50.7995212
  81.9222924 101.1774832  50.6841879  82.8490043 100.3145729  51.5139282
  83.1389265  97.6506050  47.3896572  83.7352837  97.4262072  46.6753535
  83.1964237  96.9090795  47.9922020  82.7114294  95.1045485  35.2246763
  82.9639814  94.5827006  34.4630226  81.7738853  94.9411631  35.3273446
  87.7557576  94.1081263  43.0321506  88.5420666  93.6900687  42.6811923
  88.0196281  95.0127356  43.2003154  87.9267654  99.5454114  37.7310163
  87.2913487  99.6188740  38.4431068  87.5965060 100.1347713  37.0529242
  93.1566003  94.0456497  43.9354485  93.8891175  93.4755713  44.1692314
  92.4005359  93.6578097  44.3760990  82.4310582  97.0073591  37.4271138
  82.3146840  96.3318494  38.0952222  82.5412842  96.5205965  36.6103291
  84.7742123  96.4683738  41.1317827  84.4100330  95.9414359  41.8430748
  85.6309239  96.0782207  40.9584312  90.6791424  87.7578071  48.3949093
  90.3474749  88.6273482  48.1710308  90.0837037  87.4414355  49.0743124
  84.4147610  91.4973638  36.1279176  84.5822013  92.3653874  36.4949647
  84.2244779  91.6600920  35.2040465  87.1722943  99.9590617  47.7945006
  86.8723666 100.8615656  47.6860813  86.8274003  99.6922800  48.6466159
  80.6235425  96.4104414  43.8281710  79.6985921  96.2780628  44.0359402
  80.8719838  97.1898633  44.3251653  90.5720087  92.4773157  45.4742443
  89.6636964  92.4088565  45.1801204  90.5207683  92.9545102  46.3024269
  84.3936831  93.9531295  37.1125842  84.2736456  94.3988346  37.9511323
  83.6989419  94.3016613  36.5539381  77.9844236  96.0537687  44.6625499
  78.1136617  96.3072166  45.5764911  77.3041687  96.6465395  44.3430154
  82.1543723 106.7234937  40.7615974  82.0767753 107.6742762  40.8404454
  81.5505367 106.3780810  41.4190900  84.6460953  93.8962803  53.4177341
  83.8694287  94.4556723  53.4080205  85.2851516  94.3819586  53.9392211
  92.4381734  90.6789595  47.2520317  91.7956114  90.9722129  46.6060112
  91.9336662  90.5642516  48.0573514  90.0921897  94.4252769  37.9406176
  91.0039753  94.6580155  37.7653874  89.5831544  95.0089813  37.3781255
  82.9007325  96.7048256  52.9795308  83.6422010  97.2433300  52.7030131
  82.1944311  97.3314545  53.1366859  88.3762665  98.8477396  51.5767469
  88.7846021  98.4059807  50.8322101  87.6539926  98.2730024  51.8301662
  84.7293735  93.7850003  48.9501026  85.5754930  94.2089417  49.0935675
  84.6692373  93.1283627  49.6439589  88.6991480  99.4078587  45.3319758
  88.0700342  99.5724301  44.6295826  88.3117142  99.8220197  46.1030722
  92.5780711 100.3433025  42.6864122  91.8931750 100.7231926  42.1361155
  92.6624561 100.9528352  43.4196069  87.8793180  91.4454372  50.6082200
  87.6354112  92.1996432  50.0716475  88.1553111  91.8239719  51.4429447
  89.8331643  97.9892984  49.2859465  90.0448538  98.6324744  48.6093846
  89.7861391  97.1555300  48.8181395  87.4357872  90.6010805  46.1896037
  86.5742351  90.8992058  46.4812775  87.4620307  90.8181203  45.2577070
  84.2519441  99.1452995  42.5969843  84.7157787  99.4240698  41.8074465
  83.9876240  98.2436440  42.4142934  81.1443522  98.6924477  45.5349606
  81.7144880  99.1211745  44.8967091  81.7351634  98.4107061  46.2333792
  83.1888327  95.2676147  39.4059408  83.8912371  95.7197191  39.8733334
  82.8568956  94.6259966  40.0339301  81.6368689  93.8587904  53.7810617
  81.0067350  94.5404185  54.0146014  81.5304777  93.7470986  52.8363756
  76.9313661  93.5259700  44.7076542  76.1412715  93.7817229  44.2316652
  77.4224909  94.3408038  44.8128582  90.9477471 100.8664939  47.4581823
  91.7694915 100.4645127  47.1764504  90.9439874 100.7633173  48.4097938
  78.8828407  93.8904279  41.6660018  78.0859570  94.0022974  42.1843514
  78.6553999  94.2290932  40.8000909  84.7134074 100.4148983  49.6142533
  84.7778507 100.8769390  50.4500705  84.0044998  99.7846348  49.7424843
  75.2151364  93.7790191  47.1391532  75.4659403  94.6637200  47.4049108
  75.7510913  93.5994792  46.3666624  99.0383464  97.2103688  43.8066794
  98.2847172  96.6411086  43.6510798  99.1731005  97.1766352  44.7537429
  84.4282092 102.0817090  39.4821513  84.2927767 102.9268626  39.9106361
  84.9691905 102.2836368  38.7187447  80.9149432  88.1608670  56.1435869
  80.5216377  87.6074868  56.8183513  81.7315572  88.4719248  56.5342386
  77.8811489  99.5992528  40.0549438  78.3936010 100.3935778  40.2055003
  78.5334202  98.9018819  39.9883040  79.6906374 102.7158284  42.1372192
  79.8673003 103.6376249  41.9493175  80.4863208 102.4016704  42.5666571
  83.8317393  89.5766549  53.7356125  84.5727106  90.1773702  53.6560588
  84.0635316  88.8344187  53.1774168  78.9758731  94.7622916  52.0134355
  78.8612246  93.8608174  52.3141454  78.1203248  95.0086613  51.6619171
  86.0550568 102.7040657  53.6121855  85.6114423 101.9177035  53.2942760
  86.7167782 102.8919807  52.9465746  80.8137690 104.2336458  48.1382534
  81.3645115 104.1053522  47.3659528  79.9749166 104.5331347  47.7877427
  88.1531807 102.9843457  51.6403257  88.1350282 103.8052338  51.1483526
  89.0751727 102.8597532  51.8653398  84.6104861 100.4987586  52.4826765
  85.1433197  99.7375874  52.2526073  84.0818942 100.2061238  53.2250920
  87.7774556  85.6047652  48.0120407  87.4338825  86.4949294  47.9359517
  88.1453518  85.4149310  47.1489992  75.8460406  97.9281182  40.8309009
  76.6835628  98.3378191  40.6142717  76.0238674  96.9880625  40.8009203
  87.7424838  95.5956263  36.5192842  87.2271462  96.3660868  36.7581229
  87.4702147  94.9221399  37.1425903  85.3271949  90.4405964  41.5778080
  84.4713546  90.0512814  41.3983719  85.7398901  90.5197925  40.7177866
  86.8571096  87.9752307  45.9769640  86.3535892  87.9382442  45.1637445
  87.1501703  88.8845050  46.0366297  83.1013982  88.0591037  44.9835822
  83.9666979  87.8633846  44.6241711  83.1691491  87.8301389  45.9105179
  92.7159112  98.3488618  38.4546015  91.9388555  98.0099777  38.0101177
  93.3950593  98.3541241  37.7800980  87.5311142  93.4683355  38.3452623
  87.2261277  93.7829504  39.1962766  88.4841584  93.5464775  38.3879956
  85.9757573  99.6273578  39.9945577  85.4478935  98.8926338  39.6818815
  85.4745076 100.4048255  39.7485545  90.9550419  97.8222599  45.1112623
  90.2974094  98.5121860  45.1992752  91.7590819  98.2119031  45.4546610
  80.7076301  90.2893245  42.3552189  81.2820053  90.0668426  41.6225382
  81.2947283  90.3581939  43.1080790  89.7655878  96.1766972  43.1616565
  90.2787760  96.8096964  43.6638275  90.4157102  95.5768167  42.7959925
  81.0345888  92.3197706  36.3748074  80.1983200  92.6572392  36.6957349
  80.8950658  92.1846686  35.4375211  83.0098969  87.1634494  41.0827258
  82.3563381  86.8483511  40.4583873  82.9679443  86.5410234  41.8087081
  84.1210174  97.4453789  32.9980550  83.2137235  97.2143042  33.1971699
  84.6181206  96.6491408  33.1854532  87.0278252 106.1551296  35.9177236
  86.3539951 106.4582993  36.5262194  87.4144074 106.9580376  35.5682693
  86.2436709  93.6516427  45.4074906  85.3259270  93.8731374  45.2496594
  86.6596853  93.7262738  44.5486613  87.0271757  95.0507843  40.5377586
  87.7743576  95.5629240  40.2284708  87.2963346  94.7291896  41.3981979
  85.2998407  97.5466384  37.5204540  84.3909626  97.2625416  37.6177010
  85.3293491  97.9665462  36.6607847  90.5317674 101.1572973  41.2895708
  90.0780002 100.3163883  41.3460898  89.9011641 101.7934371  41.6270488
  89.4750594  92.0864959  42.5196375  88.7373351  91.5742345  42.8506618
  89.7277368  91.6465341  41.7079652  88.9750614 102.9949470  42.2245526
  89.2673588 103.5554527  41.5057892  89.4849234 103.2878031  42.9798685
  89.5762221  84.8641211  43.1138144  89.8821098  84.0038575  42.8264060
  90.3014826  85.4558831  42.9137138  75.8686577  95.2671898  41.5019742
  75.6710977  94.6741258  40.7770809  75.3133241  94.9624108  42.2195681
  83.8483301  95.1595004  43.6214336  83.9031911  94.2068841  43.5456812
  83.0374503  95.3154443  44.1055634  84.9974495  99.0875127  34.8592619
  84.5593925  98.3710986  34.3998256  85.7384936  99.3151242  34.2977710
  81.7875661  93.7772064  41.3804714  80.9743527  94.0766235  41.7869907
  82.2834655  93.3827753  42.0979197  83.9384239 103.7729821  43.3138979
  83.8960418 103.9990667  42.3847511  84.8546938 103.5393195  43.4624780
  87.3849873  94.2413888  50.2119608  87.7399260  94.4685362  51.0714074
  88.0322004  94.5732265  49.5896864  93.1147610  97.3632324  40.9168937
  92.9765508  97.5533920  39.9890127  92.7583828  98.1251707  41.3736988
  81.2789736  91.3490419  46.9965949  81.9189115  91.2079179  46.2988913
  80.4467266  91.0624933  46.6204551  93.1416989  99.4308851  45.9280209
  93.5753496  99.3384140  46.7763263  93.8548570  99.4066352  45.2900225
  82.0550040 100.6492850  43.1100942  82.8490638 100.1543170  42.9083517
  81.3441732 100.1210713  42.7468647  86.8744884 103.0310945  47.4613309
  86.9281906 103.6001882  48.2291025  86.0059665 103.2012830  47.0967347
  78.3632803  94.7935932  39.1860695  77.4330391  94.7320387  39.4030657
  78.4590275  94.2711884  38.3897336  78.2818352  91.3190744  41.7738936
  78.5425169  92.2336078  41.6648097  79.1035524  90.8515187  41.9235549
  79.7543277  92.7328502  48.9437761  80.4266331  92.5245864  48.2950410
  78.9273064  92.5350588  48.5042993  94.0032539  99.4732552  48.4613094
  94.1968429 100.3778362  48.7072369  93.9033157  99.0139971  49.2951679
  85.6568849  89.3590443  50.9603422  85.0096765  90.0580392  50.8667898
  86.4269865  89.7926586  51.3279670  89.0647647  99.6239295  54.0353975
  88.9133154  99.3949846  53.1184059  89.0552327 100.5809896  54.0485320
  85.8332984  97.1971207  49.0200241  86.7625044  97.3482367  48.8469209
  85.4124014  97.2855228  48.1648888  84.6321316 101.2221872  46.7898779
  84.4932401 100.8540656  47.6624717  83.8435912 101.7369511  46.6182737
  85.2269468 106.3230968  38.1324315  85.4021223 105.8519012  38.9469938
  84.5402256 106.9496735  38.3605576  86.1826531 100.6003475  44.1787617
  85.8476363 100.5604245  45.0745267  85.6830476  99.9348191  43.7058027
  80.1570775  96.0071105  49.7040198  80.0190573  95.2751343  50.3051737
  81.0675698  95.9180005  49.4224386  89.1185722  97.9459509  34.4524676
  88.5014893  97.2206337  34.3557729  88.6502211  98.7068869  34.1091751
  82.7853075  95.7191064  49.1923878  83.4952694  95.0784256  49.1510496
  82.7422384  95.9703959  50.1150058  90.7739854 102.6558417  52.1130457
  90.7152400 101.9717637  51.4461040  91.1759372 103.3977407  51.6611083
  81.4982009  92.7056282  51.0119517  80.9619366  92.2547020  51.6641113
  80.9098718  92.8402191  50.2689981  79.7930553 109.4720331  44.9064176
  80.0327151 110.1038855  45.5843194  78.9499749 109.1208371  45.1929535
  80.9084268  92.1644933  33.5745981  80.0313735  92.0433734  33.2108227
  81.3842021  91.3731012  33.3224869  90.7757261 100.6198001  50.3444436
  89.8884040 100.2823923  50.4670835  91.3455812  99.8881032  50.5813202
  72.4286408  96.9522093  43.6687488  73.1157448  96.6383823  43.0808503
  72.2734537  97.8563458  43.3954739  77.2321131  91.8412290  48.0972511
  77.1479319  91.2337959  47.3622921  76.4103837  92.3321308  48.0982008
  84.3058415 105.2799454  47.3105680  84.2328586 106.0854425  47.8224984
  83.8635808 105.4791419  46.4853701  84.0948194 104.5171224  40.8208501
  83.3115716 105.0592904  40.9146726  84.7940940 105.0345203  41.2202742
  87.4044844  90.3265853  43.4642707  87.9013544  89.5735815  43.1443777
  86.6331826  90.3630170  42.8985916  95.2574602  96.0306219  45.1060998
  95.2464478  96.9130934  44.7354931  94.3891981  95.6777769  44.9115535
  86.7657098 105.1786288  49.4663838  87.4785070 105.8133752  49.3939740
  86.2747127 105.2750154  48.6503840  88.4874625  99.0837540  41.0381130
  87.5530904  99.2039003  40.8685834  88.6651294  98.1810007  40.7741140
  83.9879813  92.4683236  43.1914391  83.6177601  91.9154276  43.8795297
  84.4838906  91.8641370  42.6389391  91.8747177  94.9254860  41.5731164
  92.3407629  95.7582851  41.4991467  92.3254677  94.4599841  42.2776423
  81.8169012 102.9280731  50.2869409  82.5178471 103.5617214  50.4398803
  81.3464127 103.2695463  49.5265048  89.9423408 101.2698681  38.5717316
  90.2183252 101.1555275  39.4811190  89.0727906 100.8716166  38.5329489
  89.8463839  87.2935447  45.6122065  88.9326919  87.5239673  45.7804272
  90.2756941  87.3773891  46.4636098  89.6170298  95.4825339  48.1121959
  88.9641748  95.7301246  47.4574412  89.9950678  94.6689477  47.7784437
  86.5777472 105.5185032  42.2150130  86.7599866 104.7006688  42.6777882
  87.4010458 105.7352724  41.7775020  86.9119637 104.4453217  39.4765178
  87.4407404 103.9345671  38.8635340  87.1747857 104.1295747  40.3410711
  85.6657871  96.2245150  54.5987997  84.9898508  96.1239279  55.2690372
  86.4885505  96.0684363  55.0623994  77.4136730 102.4617086  47.2200512
  77.9990167 101.7160774  47.3528416  77.2161568 102.7721043  48.1037176
  80.2675385 105.4968334  42.2362954  79.5985760 105.9814461  41.7526994
  80.1288255 105.7437554  43.1506333  72.0054385  95.0322686  45.9404955
  72.0438484  94.4986277  46.7342073  71.4994677  94.5057892  45.3215932
  84.4080654 107.5312077  48.8345613  84.9598962 107.6943699  49.5994698
  84.7486847 108.1216515  48.1625637  79.3845147  89.8787227  49.4367497
  79.4486473  90.7402058  49.0244895  79.3212267  89.2661228  48.7039856
  78.8597419  91.9510359  53.0840531  79.4869458  91.5687437  53.6978056
  78.0025338  91.7324561  53.4496224  89.2591528 102.3573335  54.6894267
  89.8031432 102.9703293  54.1949222  88.6778373 102.9152913  55.2061280
  75.6362962  93.7586788  39.0158886  75.9316403  92.8497467  38.9625940
  74.7350998  93.7374528  38.6939889  87.5449041 105.4794053  45.8209295
  87.4200180 104.6783792  45.3120240  88.2028132 105.9740246  45.3323265
  79.1657209  91.8342785  44.9986435  78.4443795  92.4478753  44.8593908
  79.9550465  92.3700550  44.9203081  89.6083949 103.2803073  47.4488845
  88.6614285 103.1608424  47.3767171  89.9566722 102.3925571  47.5315106
  81.9683523  89.1697212  51.2727087  82.4917925  89.4159508  52.0353396
  81.7495856  90.0017246  50.8530224  77.3650804  91.4400886  39.1398211
  77.0363510  90.5598265  38.9573317  77.7190174  91.3848555  40.0274601
  86.6130383 103.0755789  43.6493197  86.4655345 102.1472496  43.8300767
  87.4383876 103.0975880  43.1650272  80.4792627  91.7273856  39.5073689
  80.8188699  92.2559777  38.7852297  80.9264747  92.0654262  40.2832256
  90.2164504 103.8984348  44.7358070  91.1411052 103.6927209  44.5982521
  90.0479808 103.6500749  45.6447411  83.1736068  90.1110907  48.9576757
  82.8332888  89.3118720  49.3597437  82.4675074  90.4112618  48.3853590
  83.8252540  87.1960219  47.4104080  84.6478609  86.7220697  47.2882971
  84.0690603  87.9750703  47.9102766  82.4660774  90.2248478  37.7066982
  83.1869137  90.6029730  37.2030699  81.8426078  90.9437354  37.8101960
  86.6091897  90.9293627  38.6425314  86.8255511  91.8118264  38.3414142
  86.1285964  90.5379840  37.9130956  81.3491118  93.8879340  45.2196059
  81.2035699  94.2019643  46.1120340  80.8716322  94.5064240  44.6666957
  83.2087501  90.8781888  45.2676948  83.1949070  89.9822981  44.9309246
  83.9259929  90.8852551  45.9015234  85.0613632  91.3119228  47.3130076
  84.8031410  92.2336299  47.3114406  84.5298672  90.9149662  48.0030540
  90.0059821 104.4170015  40.0920161  90.1796698 103.8516438  39.3394014
  90.4988712 105.2170910  39.9099651  75.8236780  96.4284684  48.1583720
  75.2790249  97.2044492  48.2903994  76.7016130  96.7755489  48.0002841
  82.6124397  89.7596268  40.5364519  82.7340308  88.8312914  40.7355406
  82.3226440  89.7734954  39.6242834  85.4815588  87.4451178  43.6731238
  85.5037284  87.5090512  42.7183218  85.8983647  86.6055687  43.8671745
  95.8599212  97.1806438  41.7110461  96.3030358  96.4313763  41.3129584
  94.9825722  97.1716574  41.3284193  90.9934993 103.7336779  37.1917059
  91.6885898 104.3543472  37.4104374  91.3358143 102.8832131  37.4669437
  76.6102802  95.5554580  51.0513877  75.8684538  95.7037216  51.6378507
  76.2895547  95.8162846  50.1880626  92.8926416 101.1836485  38.7204390
  93.4177740 101.5223758  37.9953710  92.8048769 100.2483500  38.5367525
  84.5546465 105.0970559  50.8494267  84.8633591 104.8519705  51.7216966
  85.3521947 105.3017197  50.3613137  84.5767077 107.2508468  43.0799643
  84.1372067 106.7584847  43.7732500  85.3275194 106.7081436  42.8391719
  77.0559416 103.4420009  43.0824271  77.8817436 103.1423781  42.7022915
  76.7053468 102.6727632  43.5314060  82.0240949 102.7946477  45.1521945
  81.4020958 102.1317182  44.8524173  82.6945816 102.8207609  44.4695593
  75.2568021 101.3606336  44.0413205  74.4199929 100.9328510  43.8597206
  75.2291666 101.5538779  44.9783996  82.0965477  91.2728265  54.7454451
  82.1453632  92.1490388  54.3632221  82.6387991  90.7305658  54.1726094
  92.5820322 101.8169389  54.0255588  91.7915866 101.7993527  53.4860088
  92.3453677 102.3557682  54.7804625  92.7018197  98.6661855  51.3388317
  92.7516202  98.5011862  52.2803840  92.5932121  97.7989114  50.9486198
  81.5854456 101.3450401  38.6280406  81.7342576 102.0285865  37.9747078
  82.3920900 101.3255491  39.1429861  89.9921960  94.6492783  52.6547623
  90.8931823  94.5099248  52.3631621  90.0669934  94.8147238  53.5945801
  84.3264765  92.0259638  51.5000810  83.4568075  92.3193204  51.2283398
  84.5624245  92.6100083  52.2208073  94.2036394 101.0858796  51.5830338
  93.9121203 101.4488777  52.4193799  93.5908526 100.3725805  51.4043670
  95.4032077  98.6511676  44.1032908  96.2378968  99.0901480  44.2670469
  95.5391205  98.1750329  43.2841154  92.4523582  96.2091411  50.0510396
  92.9277704  96.4019057  49.2429248  91.5289148  96.2650597  49.8053780
  79.3407089  97.3715578  39.6341475  79.0953131  96.4677908  39.8321685
  79.5103004  97.3732729  38.6920953  87.0303799  88.2439255  49.0166230
  87.5485743  88.9800282  48.6912719  86.6758932  88.5503248  49.8512989
  78.6102737  93.1043936  37.1327636  77.9171982  93.1788291  36.4767672
  78.3654489  92.3404280  37.6549153  87.2816393  84.6639537  44.5367127
  87.5618147  83.9962726  45.1627553  88.0667000  84.8568633  44.0241791
  85.0849862 103.8398531  36.0992153  84.5123829 104.4588718  35.6462625
  85.6582655 104.3897893  36.6332075  91.1525251  93.0857171  48.2838702
  92.1042674  93.1855269  48.3050926  90.9828702  92.2935440  48.7936786
  89.1739631  90.1712754  48.4698103  88.5789563  90.4517767  47.7744591
  88.8889328  90.6606655  49.2414844  88.3047121 104.1235681  37.2300735
  89.2377795 104.0581243  37.4333611  88.2170334 104.9591948  36.7715268
  90.9335138 103.4401552  34.1904683  90.8548770 103.1061415  35.0840441
  91.7544805 103.9323320  34.1896155  93.6313329  96.3063291  47.3981002
  93.5989649  95.3679292  47.5840685  94.2413953  96.3847328  46.6646826
  85.4696660  95.1759344  33.4408206  86.4155765  95.0465552  33.5096624
  85.0910905  94.4374006  33.9177634  93.7807818  93.0974334  47.4439285
  93.2646866  92.3132791  47.2569214  94.6647766  92.7693051  47.6085804
  91.4418545  86.8415350  43.4035097  91.2443366  86.5330438  44.2878429
  92.0518250  87.5676989  43.5333027  99.4489879  97.3679298  46.5387038
 100.1793268  97.1064586  47.0994742  98.8396825  96.6308020  46.5789106
  97.5305176  95.5087160  47.1361489  96.8038340  95.3743125  46.5277981
  97.1152463  95.8163989  47.9418208  85.3535353  99.2277090  54.9008863
  86.2738362  99.4055689  55.0948909  85.3184936  98.2833135  54.7488562
  83.6539577  93.1009320  33.3763091  82.7471033  92.8042433  33.4525804
  83.9315558  92.8039138  32.5097377  74.5717518  94.4215684  43.8262137
  74.2520302  93.5680992  43.5336511  74.0250946  94.6364262  44.5820104
  78.3497425  97.1378125  47.5431644  78.5683435  98.0695232  47.5619677
  78.7623199  96.7786099  48.3286448  85.2701643  87.6446210  39.5307332
  84.4602371  87.2993295  39.9062578  85.9586060  87.3353754  40.1194944
  87.1992191  86.7224257  41.1531629  87.7523230  87.1419710  41.8121652
  87.4362278  85.7960005  41.1954585  83.2225291  92.7111330  56.9334393
  83.1222017  93.6605687  56.8646484  83.0046833  92.3829569  56.0610463
  82.4238362  89.9596255  33.5175070  83.2857526  90.2851154  33.7770887
  82.6088706  89.1727751  33.0048136  74.4405778  98.0418595  45.7955259
  73.7469249  97.6272548  45.2825213  75.1878769  98.0839132  45.1988678
  90.5770998  88.8324782  40.6610293  89.9969667  89.4909586  40.2788345
  90.3106931  88.0102127  40.2497710  89.0274565  88.2329840  42.8631613
  89.5274343  88.3446374  42.0545932  89.6710173  87.9290892  43.5032422
  83.0856561  96.1408469  55.7499454  82.6023642  96.9408829  55.9563343
  83.1717500  96.1516414  54.7966898  76.3542520  97.9736849  43.6721274
  76.3313208  98.0724536  42.7203157  76.6643157  98.8202000  43.9938440
  79.0129898 100.0313004  47.7867888  79.9673152  99.9996946  47.7197820
  78.8142422  99.5703628  48.6018114  79.6029280  98.6014120  50.3538686
  80.4222169  99.0958199  50.3773523  79.8766088  97.6846088  50.3256253
  89.3595876  90.9924872  39.7166641  88.4721731  91.2774523  39.4986836
  89.7749865  90.8318636  38.8693918  92.7110413  91.0171393  43.4320980
  93.4870803  91.5067846  43.7045597  91.9858547  91.4429448  43.8892850
  95.1482971  91.7299013  44.4894921  95.7427462  91.4894748  43.7788229
  95.2209555  91.0106143  45.1168457  77.3680127 105.5732623  44.8038086
  77.2334595 104.8133024  44.2376084  76.9512189 106.2973523  44.3366875
  88.5039090 100.7569547  33.8114661  89.2074940 100.9619549  34.4272317
  87.7801739 101.3246309  34.0763745  89.3336900  96.5079408  39.9316931
  89.2772102  96.9647960  39.0924564  89.8865243  95.7470093  39.7539774
  93.1441706  92.2969140  40.7567051  92.8878640  91.8965776  41.5875259
  92.5194574  93.0112934  40.6317190  97.4554044  95.0365213  43.2638342
  96.8953602  95.1058403  44.0369904  96.8497547  94.8606198  42.5437839
  80.5249253 106.4701940  45.0156529  80.4081637 107.4147373  44.9135219
  79.7041699 106.1675502  45.4042328  90.4125787 101.1952076  35.8613121
  91.2471391 100.7633275  35.6790596  90.2510130 101.0234090  36.7890016
  90.0671679  97.6984190  37.2269461  90.0120483  97.5328461  36.2857905
  89.4417735  98.4060222  37.3831650  74.8564194  92.9352254  51.0530883
  75.5023058  92.4251208  51.5418108  74.6481346  93.6720936  51.6274308
  87.3817587 100.0033101  56.5523023  88.2508746 100.1773754  56.1909658
  86.9024338 100.8227518  56.4298753  83.3767805  87.1992299  36.8054779
  83.3646475  88.1434138  36.9623050  84.2691227  87.0162444  36.5114240
  81.5503767 107.1230202  48.2312457  82.4531014 107.1553813  48.5478952
  81.3241137 106.1930653  48.2458793  83.3057369 105.8761189  44.8922536
  82.3553000 105.8763051  44.7786908  83.6089855 105.1293923  44.3758570
  87.1919924  83.7935075  41.0600716  86.4252320  83.2393562  41.2057398
  87.6030629  83.8656944  41.9214867  79.1961685  90.0819871  55.1505897
  80.0593147  89.7256676  55.3609222  78.6227096  89.7433766  55.8381301
  95.8499769 111.6649155  45.8929823  95.5118280 111.5490220  45.0050358
  96.7189537 111.2640321  45.8730829  91.7086584 113.5184632  41.8826714
  91.1451449 113.4274569  41.1143001  91.5938979 112.6984536  42.3629206
  96.3319552 112.8184007  51.8516028  96.3208192 112.4236805  50.9796532
  96.4940191 112.0850080  52.4449800  89.2551016 115.0135823  44.7210934
  90.0472308 114.6726648  44.3057233  89.4947666 115.1230798  45.6413087
  91.2141770 114.2744737  37.5928313  91.9872646 113.7273724  37.4541189
  91.5667169 115.1388986  37.8042774  93.9783020 112.9797967  47.3896572
  94.5746592 112.7553990  46.6753535  94.0357991 112.2382713  47.9922020
  93.5508048 110.4337403  35.2246763  93.8033569 109.9118924  34.4630226
  92.6132607 110.2703548  35.3273446  98.5951331 109.4373181  43.0321506
  99.3814420 109.0192604  42.6811923  98.8590035 110.3419273  43.2003154
  93.2704337 112.3365509  37.4271138  93.1540595 111.6610412  38.0952222
  93.3806597 111.8497883  36.6103291  95.6135878 111.7975656  41.1317827
  95.2494085 111.2706277  41.8430748  96.4702994 111.4074125  40.9584312
 101.5185178 103.0869988  48.3949093 101.1868503 103.9565399  48.1710308
 100.9230792 102.7706272  49.0743124  95.2541365 106.8265556  36.1279176
  95.4215767 107.6945792  36.4949647  95.0638534 106.9892837  35.2040465
  91.4629179 111.7396331  43.8281710  90.5379676 111.6072545  44.0359402
  91.7113593 112.5190551  44.3251653 101.4113842 107.8065075  45.4742443
 100.5030719 107.7380483  45.1801204 101.3601437 108.2837020  46.3024269
  95.2330586 109.2823213  37.1125842  95.1130211 109.7280264  37.9511323
  94.5383174 109.6308531  36.5539381  88.8237990 111.3829605  44.6625499
  88.9530372 111.6364084  45.5764911  88.1435442 111.9757313  44.3430154
  95.4854707 109.2254720  53.4177341  94.7088041 109.7848640  53.4080205
  96.1245270 109.7111503  53.9392211 103.2775488 106.0081513  47.2520317
 102.6349868 106.3014046  46.6060112 102.7730417 105.8934433  48.0573514
  93.7401080 112.0340174  52.9795308  94.4815764 112.5725218  52.7030131
  93.0338065 112.6606462  53.1366859  95.5687489 109.1141921  48.9501026
  96.4148685 109.5381334  49.0935675  95.5086127 108.4575545  49.6439589
  98.7186935 106.7746289  50.6082200  98.4747867 107.5288350  50.0716475
  98.9946865 107.1531637  51.4429447  98.2751626 105.9302722  46.1896037
  97.4136106 106.2283976  46.4812775  98.3014061 106.1473121  45.2577070
  91.9837277 114.0216394  45.5349606  92.5538634 114.4503663  44.8967091
  92.5745389 113.7398979  46.2333792  94.0282082 110.5968065  39.4059408
  94.7306125 111.0489109  39.8733334  93.6962710 109.9551884  40.0339301
  92.4762443 109.1879822  53.7810617  91.8461104 109.8696103  54.0146014
  92.3698531 109.0762903  52.8363756  87.7707416 108.8551618  44.7076542
  86.9806470 109.1109146  44.2316652  88.2618663 109.6699956  44.8128582
  89.7222161 109.2196197  41.6660018  88.9253325 109.3314891  42.1843514
  89.4947753 109.5582849  40.8000909  86.0545119 109.1082108  47.1391532
  86.3053157 109.9929118  47.4049108  86.5904667 108.9286710  46.3666624
  91.7543186 103.4900588  56.1435869  91.3610132 102.9366786  56.8183513
  92.5709327 103.8011166  56.5342386  88.7205244 114.9284446  40.0549438
  89.2329765 115.7227696  40.2055003  89.3727957 114.2310736  39.9883040
  94.6711147 104.9058467  53.7356125  95.4120861 105.5065620  53.6560588
  94.9029070 104.1636104  53.1774168  89.8152485 110.0914834  52.0134355
  89.7006000 109.1900091  52.3141454  88.9597003 110.3378531  51.6619171
  98.6168310 100.9339570  48.0120407  98.2732580 101.8241211  47.9359517
  98.9847273 100.7441227  47.1489992  86.6854161 113.2573100  40.8309009
  87.5229383 113.6670108  40.6142717  86.8632428 112.3172542  40.8009203
  96.1665704 105.7697882  41.5778080  95.3107300 105.3804732  41.3983719
  96.5792656 105.8489842  40.7177866  97.6964851 103.3044225  45.9769640
  97.1929646 103.2674360  45.1637445  97.9895457 104.2136968  46.0366297
  93.9407736 103.3882955  44.9835822  94.8060733 103.1925763  44.6241711
  94.0085245 103.1593306  45.9105179  98.3704896 108.7975273  38.3452623
  98.0655032 109.1121422  39.1962766  99.3235338 108.8756693  38.3879956
  91.5470055 105.6185162  42.3552189  92.1213807 105.3960344  41.6225382
  92.1341038 105.6873857  43.1080790  91.8739643 107.6489623  36.3748074
  91.0376955 107.9864310  36.6957349  91.7344412 107.5138603  35.4375211
  93.8492723 102.4926411  41.0827258  93.1957136 102.1775429  40.4583873
  93.8073197 101.8702152  41.8087081  97.0830464 108.9808345  45.4074906
  96.1653025 109.2023292  45.2496594  97.4990607 109.0554655  44.5486613
  97.8665511 110.3799761  40.5377586  98.6137330 110.8921158  40.2284708
  98.1357101 110.0583813  41.3981979 100.3144348 107.4156877  42.5196375
  99.5767105 106.9034263  42.8506618 100.5671122 106.9757258  41.7079652
 100.4155976 100.1933129  43.1138144 100.7214853  99.3330492  42.8264060
 101.1408581 100.7850749  42.9137138  86.7080332 110.5963815  41.5019742
  86.5104732 110.0033176  40.7770809  86.1526996 110.2916026  42.2195681
  94.6877056 110.4886922  43.6214336  94.7425665 109.5360758  43.5456812
  93.8768258 110.6446361  44.1055634  92.6269415 109.1063982  41.3804714
  91.8137281 109.4058152  41.7869907  93.1228410 108.7119670  42.0979197
  98.2243627 109.5705806  50.2119608  98.5793015 109.7977279  51.0714074
  98.8715758 109.9024183  49.5896864  92.1183490 106.6782337  46.9965949
  92.7582870 106.5371096  46.2988913  91.2861021 106.3916851  46.6204551
  89.2026558 110.1227849  39.1860695  88.2724146 110.0612305  39.4030657
  89.2984030 109.6003802  38.3897336  89.1212107 106.6482662  41.7738936
  89.3818924 107.5627995  41.6648097  89.9429279 106.1807105  41.9235549
  90.5937032 108.0620419  48.9437761  91.2660085 107.8537781  48.2950410
  89.7666818 107.8642505  48.5042993  96.4962604 104.6882360  50.9603422
  95.8490519 105.3872310  50.8667898  97.2663619 105.1218504  51.3279670
  90.9964529 111.3363022  49.7040198  90.8584327 110.6043261  50.3051737
  91.9069453 111.2471922  49.4224386  93.6246830 111.0482982  49.1923878
  94.3346448 110.4076174  49.1510496  93.5816138 111.2995876  50.1150058
  92.3375764 108.0348200  51.0119517  91.8013121 107.5838938  51.6641113
  91.7492472 108.1694108  50.2689981  91.7478023 107.4936851  33.5745981
  90.8707489 107.3725652  33.2108227  92.2235776 106.7022929  33.3224869
  83.2680163 112.2814011  43.6687488  83.9551203 111.9675741  43.0808503
  83.1128292 113.1855375  43.3954739  88.0714885 107.1704207  48.0972511
  87.9873074 106.5629877  47.3622921  87.2497592 107.6613226  48.0982008
  98.2438599 105.6557771  43.4642707  98.7407299 104.9027733  43.1443777
  97.4725580 105.6922087  42.8985916  94.8273568 107.7975154  43.1914391
  94.4571355 107.2446194  43.8795297  95.3232660 107.1933287  42.6389391
 100.6857594 102.6227364  45.6122065  99.7720674 102.8531591  45.7804272
 101.1150695 102.7065808  46.4636098  96.5051625 111.5537067  54.5987997
  95.8292262 111.4531197  55.2690372  97.3279259 111.3976281  55.0623994
  88.2530484 117.7909004  47.2200512  88.8383921 117.0452692  47.3528416
  88.0555323 118.1012961  48.1037176  82.8448139 110.3614604  45.9404955
  82.8832239 109.8278195  46.7342073  82.3388432 109.8349810  45.3215932
  90.2238901 105.2079145  49.4367497  90.2880228 106.0693975  49.0244895
  90.1606022 104.5953146  48.7039856  89.6991174 107.2802277  53.0840531
  90.3263213 106.8979354  53.6978056  88.8419093 107.0616479  53.4496224
  86.4756717 109.0878706  39.0158886  86.7710158 108.1789385  38.9625940
  85.5744752 109.0666446  38.6939889  90.0050964 107.1634703  44.9986435
  89.2837549 107.7770670  44.8593908  90.7944219 107.6992468  44.9203081
  92.8077277 104.4989129  51.2727087  93.3311679 104.7451426  52.0353396
  92.5889610 105.3309164  50.8530224  88.2044558 106.7692804  39.1398211
  87.8757264 105.8890183  38.9573317  88.5583929 106.7140473  40.0274601
  91.3186381 107.0565774  39.5073689  91.6582454 107.5851695  38.7852297
  91.7658502 107.3946180  40.2832256  94.0129822 105.4402824  48.9576757
  93.6726643 104.6410637  49.3597437  93.3068828 105.7404535  48.3853590
  94.6646294 102.5252137  47.4104080  95.4872363 102.0512615  47.2882971
  94.9084358 103.3042621  47.9102766  93.3054529 105.5540395  37.7066982
  94.0262891 105.9321648  37.2030699  92.6819833 106.2729272  37.8101960
  97.4485651 106.2585544  38.6425314  97.6649266 107.1410182  38.3414142
  96.9679719 105.8671758  37.9130956  92.1884873 109.2171257  45.2196059
  92.0429454 109.5311560  46.1120340  91.7110076 109.8356158  44.6666957
  94.0481256 106.2073805  45.2676948  94.0342824 105.3114899  44.9309246
  94.7653684 106.2144469  45.9015234  95.9007386 106.6411146  47.3130076
  95.6425164 107.5628216  47.3114406  95.3692427 106.2441580  48.0030540
  86.6630535 111.7576602  48.1583720  86.1184003 112.5336410  48.2903994
  87.5409885 112.1047406  48.0002841  93.4518152 105.0888186  40.5364519
  93.5734063 104.1604832  40.7355406  93.1620194 105.1026872  39.6242834
  96.3209342 102.7743096  43.6731238  96.3431039 102.8382429  42.7183218
  96.7377401 101.9347605  43.8671745  87.4496557 110.8846498  51.0513877
  86.7078293 111.0329133  51.6378507  87.1289301 111.1454764  50.1880626
  86.0961776 116.6898253  44.0413205  85.2593684 116.2620428  43.8597206
  86.0685421 116.8830697  44.9783996  92.9359231 106.6020183  54.7454451
  92.9847387 107.4782306  54.3632221  93.4781745 106.0597576  54.1726094
  95.1658520 107.3551555  51.5000810  94.2961829 107.6485121  51.2283398
  95.4018000 107.9392000  52.2208073  90.1800844 112.7007496  39.6341475
  89.9346886 111.7969826  39.8321685  90.3496758 112.7024646  38.6920953
  97.8697553 103.5731172  49.0166230  98.3879497 104.3092199  48.6912719
  97.5152686 103.8795166  49.8512989  89.4496491 108.4335854  37.1327636
  88.7565736 108.5080209  36.4767672  89.2048243 107.6696197  37.6549153
  98.1210148  99.9931455  44.5367127  98.4011901  99.3254644  45.1627553
  98.9060755 100.1860551  44.0241791 100.0133385 105.5004672  48.4698103
  99.4183318 105.7809685  47.7744591  99.7283082 105.9898573  49.2414844
  96.3090415 110.5051262  33.4408206  97.2549519 110.3757470  33.5096624
  95.9304660 109.7665923  33.9177634 102.2812299 102.1707268  43.4035097
 102.0837120 101.8622356  44.2878429 102.8912005 102.8968906  43.5333027
  94.4933332 108.4301238  33.3763091  93.5864787 108.1334351  33.4525804
  94.7709313 108.1331056  32.5097377  85.4111272 109.7507601  43.8262137
  85.0914056 108.8972910  43.5336511  84.8644700 109.9656179  44.5820104
  89.1891180 112.4670042  47.5431644  89.4077189 113.3987150  47.5619677
  89.6016954 112.1078017  48.3286448  96.1095397 102.9738128  39.5307332
  95.2996126 102.6285213  39.9062578  96.7979814 102.6645671  40.1194944
  98.0385946 102.0516174  41.1531629  98.5916984 102.4711628  41.8121652
  98.2756032 101.1251923  41.1954585  94.0619045 108.0403248  56.9334393
  93.9615772 108.9897605  56.8646484  93.8440587 107.7121487  56.0610463
  93.2632116 105.2888173  33.5175070  94.1251280 105.6143071  33.7770887
  93.4482461 104.5019669  33.0048136  85.2799532 113.3710513  45.7955259
  84.5863004 112.9564466  45.2825213  86.0272523 113.4131049  45.1988678
 101.4164753 104.1616700  40.6610293 100.8363422 104.8201504  40.2788345
 101.1500686 103.3394044  40.2497710  99.8668319 103.5621757  42.8631613
 100.3668098 103.6738292  42.0545932 100.5103927 103.2582810  43.5032422
  93.9250315 111.4700387  55.7499454  93.4417397 112.2700747  55.9563343
  94.0111254 111.4808332  54.7966898  87.1936275 113.3028767  43.6721274
  87.1706963 113.4016454  42.7203157  87.5036911 114.1493917  43.9938440
  89.8523653 115.3604922  47.7867888  90.8066906 115.3288864  47.7197820
  89.6536176 114.8995545  48.6018114  90.4423035 113.9306038  50.3538686
  91.2615924 114.4250116  50.3773523  90.7159842 113.0138006  50.3256253
 100.1989631 106.3216790  39.7166641  99.3115486 106.6066441  39.4986836
 100.6143620 106.1610553  38.8693918 103.5504167 106.3463311  43.4320980
 104.3264557 106.8359763  43.7045597 102.8252301 106.7721365  43.8892850
  85.6957949 108.2644172  51.0530883  86.3416813 107.7543126  51.5418108
  85.4875100 109.0012853  51.6274308  94.2161559 102.5284216  36.8054779
  94.2040229 103.4726056  36.9623050  95.1084981 102.3454362  36.5114240
  98.0313679  99.1226993  41.0600716  97.2646075  98.5685480  41.2057398
  98.4424384  99.1948862  41.9214867  90.0355440 105.4111789  55.1505897
  90.8986901 105.0548593  55.3609222  89.4620851 105.0725683  55.8381301
  31.2957026  -2.1505376  38.5761335  31.2845667  -2.5452578  37.7041839
  31.4577665  -2.8839304  39.1695106  28.0164287   0.6331735  37.5240519
  27.7254153   1.5377366  37.4087185  28.6521271   0.6748263  38.2384588
  32.9754172   0.3193151  34.5190313  32.6754895   1.2218190  34.4106120
  32.6305232   0.0525334  35.3711465  34.1793894  -0.7920069  38.3012776
  34.5877250  -1.2337659  37.5567408  33.4571155  -1.3667442  38.5546969
  34.5022708  -0.2318879  32.0565065  33.8731571  -0.0673165  31.3541132
  34.1148370   0.1822731  32.8276029  38.3811940   0.7035559  29.4109428
  37.6962978   1.0834460  28.8606462  38.4655790   1.3130886  30.1441376
  35.6362872  -1.6504482  36.0104772  35.8479767  -1.0072722  35.3339153
  35.5892620  -2.4842165  35.5426702  36.7508700   1.2267474  34.1827129
  37.5726144   0.8247661  33.9009811  36.7471103   1.1235708  35.1343245
  30.5165303   0.7751517  36.3387840  30.5809736   1.2371924  37.1746011
  29.8076227   0.1448882  36.4670149  44.8414693  -2.4293778  30.5312101
  44.0878401  -2.9986380  30.3756105  44.9762234  -2.4631114  31.4782735
  31.8581797   3.0643191  40.3367162  31.4145651   2.2779569  40.0188067
  32.5199011   3.2522341  39.6711053  26.6168918   4.5938992  34.8627841
  27.1676344   4.4656056  34.0904834  25.7780394   4.8933881  34.5122733
  33.9563035   3.3445991  38.3648563  33.9381511   4.1654872  37.8728832
  34.8782955   3.2200066  38.5898704  30.4136089   0.8590120  39.2072072
  30.9464426   0.0978408  38.9771380  29.8850171   0.5663772  39.9496226
  36.7581648  -1.8174867  31.8357930  36.1005323  -1.1275605  31.9238059
  37.5622047  -1.4278435  32.1791916  34.7781842   3.3552004  28.9490833
  35.0704817   3.9157061  28.2303198  35.2880463   3.6480565  29.7043992
  33.1881101  -5.3983577  36.9364915  33.5430489  -5.1712104  37.7959381
  33.8353233  -5.0665201  36.3142170  38.9448218  -0.2088614  32.6525515
  39.3784725  -0.3013325  33.5008570  39.6579799  -0.2331114  32.0145531
  32.6776113   3.3913480  34.1858616  32.7313135   3.9604416  34.9536332
  31.8090894   3.5615365  33.8212653  39.8063768  -0.1664914  35.1858401
  39.9999658   0.7380897  35.4317676  39.7064386  -0.6257495  36.0196986
  34.8678876  -0.0158171  40.7599281  34.7164383  -0.2447619  39.8429365
  34.8583556   0.9412430  40.7730626  31.6364213  -2.4426258  35.7445548
  32.5656273  -2.2915099  35.5714515  31.2155243  -2.3542238  34.8894194
  30.4352544   1.5824406  33.5144086  30.2963630   1.2143191  34.3870024
  29.6467141   2.0972046  33.3428043  36.5771083   3.0160951  38.8375763
  36.5183629   2.3320172  38.1706346  36.9790601   3.7579942  38.3856389
  25.5961782   9.8322865  31.6309482  25.8358380  10.4641390  32.3088501
  24.7530978   9.4810905  31.9174842  36.5788490   0.9800535  37.0689743
  35.6915269   0.6426457  37.1916142  37.1487041   0.2483567  37.3058508
  30.1089644   5.6401988  34.0350986  30.0359815   6.4456959  34.5470291
  29.6667037   5.8393954  33.2099008  41.0605831  -3.6091247  31.8306305
  41.0495707  -2.7266532  31.4600238  40.1923210  -3.9619696  31.6360842
  32.5688327   5.5388822  36.1909145  33.2816299   6.1736287  36.1185046
  32.0778356   5.6352688  35.3749147  27.6200241   3.2883265  37.0114716
  28.3209700   3.9219748  37.1644110  27.1495356   3.6297997  36.2510355
  35.4201527  -4.1572127  34.8367266  34.7672977  -3.9096220  34.1819719
  35.7981906  -4.9707989  34.5029743  32.3808700   5.8787566  28.9395436
  32.5631095   5.0609222  29.4023189  33.2041686   6.0955258  28.5020326
  31.4689100  -3.4152316  41.3233303  30.7929737  -3.5158187  41.9935678
  32.2916733  -3.5713102  41.7869300  23.2167959   2.8219620  33.9445818
  23.8021395   2.0763308  34.0773723  23.0192797   3.1323577  34.8282482
  30.2111882   7.8914611  35.5590919  30.7630191   8.0546233  36.3240004
  30.5518076   8.4819049  34.8870944  35.0622757   2.7175869  41.4139574
  35.6062661   3.3305827  40.9194528  34.4809602   3.2755447  41.9306587
  33.3480270   5.8396587  32.5454601  33.2231409   5.0386327  32.0365547
  34.0059361   6.3342780  32.0568571  35.4115178   3.6405607  34.1734151
  34.4645514   3.5210958  34.1012478  35.7597951   2.7528105  34.2560413
  32.4161611   3.4358323  30.3738504  32.2686574   2.5075030  30.5546074
  33.2415105   3.4578414  29.8895579  36.0195733   4.2586882  31.4603376
  36.9442281   4.0529743  31.3227828  35.8511037   4.0103283  32.3692718
  30.3577694   5.4573093  37.5739573  30.6664820   5.2122240  38.4462273
  31.1553176   5.6619731  37.0858444  30.3798306   7.6111002  29.8044950
  29.9403296   7.1187381  30.4977807  31.1306423   7.0683970  29.5637025
  38.3851551   2.1771923  40.7500895  37.5947095   2.1596062  40.2105394
  38.1484906   2.7160217  41.5049931  38.5049426  -0.9735611  38.0633623
  38.5547431  -1.1385603  39.0049146  38.3963350  -1.8408352  37.6731504
  35.7953189  -4.9904683  39.3792930  36.6963051  -5.1298218  39.0876928
  35.8701163  -4.8250228  40.3191108  40.0067623   1.4461331  38.3075645
  39.7152431   1.8091311  39.1439106  39.3939754   0.7328339  38.1288977
  41.2063305  -0.9885790  30.8278215  42.0410197  -0.5495985  30.9915775
  41.3422434  -1.4647136  30.0086461  38.2554811  -3.4306055  36.7755703
  38.7308933  -3.2378408  35.9674554  37.3320377  -3.3746869  36.5299087
  36.9556480  -6.5540295  35.0084008  37.9073903  -6.4542197  35.0296233
  36.7859931  -7.3462026  35.5182093  39.4344558  -3.3334175  34.1226308
  39.4020878  -4.2718174  34.3085992  40.0445182  -3.2550138  33.3892133
  39.5839047  -6.5423131  34.1684591  39.0678095  -7.3264675  33.9814520
  40.4678995  -6.8704415  34.3331111  45.2521108  -2.2718168  33.2632345
  45.9824496  -2.5332880  33.8240048  44.6428053  -3.0089446  33.3034413
  43.3336405  -4.1310305  33.8606796  42.6069569  -4.2654341  33.2523288
  42.9183692  -3.8233477  34.6663514  31.1566581  -0.4120376  41.6254169
  32.0769591  -0.2341777  41.8194216  31.1216165  -1.3564330  41.4733868
  26.3280482   6.8304475  31.7401835  26.2112866   7.7749907  31.6380525
  25.5072928   6.5278036  32.1287634  33.1848815   0.3635636  43.2768330
  34.0539975   0.5376288  42.9154965  32.7055567   1.1830052  43.1544059
  27.3534996   7.4832737  34.9557764  28.2562242   7.5156347  35.2724259
  27.1272366   6.5533188  34.9704099  29.1088598   6.2363723  31.6167842
  28.1584229   6.2365585  31.5032215  29.4121084   5.4896458  31.1003877
  44.8441291  12.0724262  32.6813605  45.4819701  11.9531009  31.9776945
  44.7262134  13.0205105  32.7401557  41.6530997  12.0251690  32.6175129
  41.3149509  11.9092754  31.7295664  42.5220766  11.6242855  32.5976135
  37.5117813  13.8787166  28.6072020  36.9482678  13.7877103  27.8388308
  37.3970208  13.0587070  29.0874513  42.1350780  13.1786541  38.5761335
  42.1239421  12.7839340  37.7041839  42.2971420  12.4452614  39.1695106
  35.0582245  15.3738358  31.4456241  35.8503537  15.0329182  31.0302540
  35.2978895  15.4833333  32.3658394  43.0917372  17.5458134  23.9186485
  42.4405352  18.1312214  23.5320499  43.8861735  18.0764329  23.9781523
  37.0172999  14.6347271  24.3173620  37.7903875  14.0876258  24.1786495
  37.3698398  15.4991520  24.5288081  38.8558042  15.9623653  37.5240519
  38.5647908  16.8669284  37.4087185  39.4915026  16.0040181  38.2384588
  39.7814248  13.3400502  34.1141879  40.3777821  13.1156524  33.3998841
  39.8389220  12.5985247  34.7167326  44.3982560   9.7975715  29.7566813
  45.1845649   9.3795139  29.4057230  44.6621264  10.7021808  29.9248461
  44.5692637  15.2348566  24.4555470  43.9338470  15.3083192  25.1676374
  44.2390043  15.8242165  23.7774549  49.7990987   9.7350949  30.6599791
  50.5316159   9.1650165  30.8937621  49.0430342   9.3472549  31.1006297
  39.0735566  12.6968043  24.1516444  38.9571824  12.0212946  24.8197529
  39.1837825  12.2100417  23.3348597  41.4167107  12.1578190  27.8563134
  41.0525314  11.6308811  28.5676055  42.2734222  11.7676659  27.6829619
  47.3216407   3.4472523  35.1194400  46.9899732   4.3167934  34.8955615
  46.7262021   3.1308807  35.7988430  43.8147927  15.6485069  34.5190313
  43.5148650  16.5510107  34.4106120  43.4698986  15.3817252  35.3711465
  37.2660408  12.0998866  30.5527017  36.3410905  11.9675080  30.7604709
  37.5144821  12.8793085  31.0496959  47.2145070   8.1667609  32.1987750
  46.3061948   8.0983017  31.9046511  47.1632666   8.6439554  33.0269575
  41.0361814   9.6425747  23.8371149  40.9161440  10.0882798  24.6756629
  40.3414403   9.9911065  23.2784687  34.6269219  11.7432139  31.3870806
  34.7561600  11.9966618  32.3010218  33.9466670  12.3359847  31.0675461
  38.7968706  22.4129389  27.4861280  38.7192736  23.3637214  27.5649761
  38.1930350  22.0675262  28.1436207  41.2885936   9.5857254  40.1422647
  40.5119270  10.1451175  40.1325512  41.9276499  10.0714037  40.6637517
  49.0806717   6.3684047  33.9765624  48.4381097   6.6616580  33.3305418
  48.5761645   6.2536968  34.7818820  46.7346881  10.1147220  24.6651483
  47.6464737  10.3474607  24.4899181  46.2256528  10.6984265  24.1026562
  39.5432309  12.3942708  39.7040614  40.2846993  12.9327752  39.4275438
  38.8369294  13.0208997  39.8612166  45.0187648  14.5371848  38.3012776
  45.4271004  14.0954259  37.5567408  44.2964910  13.9624476  38.5546969
  41.3718718   9.4744455  35.6746333  42.2179913   9.8983869  35.8180982
  41.3117356   8.8178079  36.3684896  45.3416463  15.0973039  32.0565065
  44.7125325  15.2618753  31.3541132  44.9542125  15.5114648  32.8276029
  49.2205695  16.0327477  29.4109428  48.5356733  16.4126378  28.8606462
  49.3049544  16.6422803  30.1441376  44.5218164   7.1348823  37.3327506
  44.2779095   7.8890884  36.7961782  44.7978094   7.5134171  38.1674753
  46.4756626  13.6787436  36.0104772  46.6873522  14.3219196  35.3339153
  46.4286375  12.8449752  35.5426702  44.0782855   6.2905256  32.9141344
  43.2167334   6.5886510  33.2058082  44.1045290   6.5075655  31.9822377
  40.8944425  14.8347447  29.3215150  41.3582770  15.1135150  28.5319772
  40.6301223  13.9330892  29.1388240  37.7868506  14.3818929  32.2594913
  38.3569863  14.8106197  31.6212397  38.3776618  14.1001513  32.9579099
  39.8313311  10.9570599  26.1304715  40.5337354  11.4091643  26.5978641
  39.4993939  10.3154418  26.7584608  38.2793672   9.5482356  40.5055924
  37.6492333  10.2298637  40.7391321  38.1729760   9.4365438  39.5609062
  33.5738645   9.2154152  31.4321848  32.7837699   9.4711681  30.9561959
  34.0649892  10.0302490  31.5373889  47.5902454  16.5559391  34.1827129
  48.4119898  16.1539578  33.9009811  47.5864857  16.4527625  35.1343245
  35.5253390   9.5798731  28.3905325  34.7284553   9.6917426  28.9088821
  35.2978982   9.9185383  27.5246216  41.3559058  16.1043434  36.3387840
  41.4203490  16.5663842  37.1746011  40.6469982  15.4740799  36.4670149
  31.8576348   9.4684642  33.8636839  32.1084386  10.3531652  34.1294415
  32.3935896   9.2889244  33.0911931  55.6808447  12.8998140  30.5312101
  54.9272156  12.3305538  30.3756105  55.8155989  12.8660804  31.4782735
  41.0707075  17.7711542  26.2066820  40.9352750  18.6163078  26.6351668
  41.6116888  17.9730820  25.4432754  37.5574415   3.8503122  42.8681175
  37.1641361   3.2969320  43.5428819  38.3740555   4.1613700  43.2587693
  34.5236473  15.2886980  26.7794745  35.0360993  16.0830230  26.9300310
  35.1759186  14.5913270  26.7128347  36.3331357  18.4052736  28.8617498
  36.5097986  19.3270701  28.6738482  37.1288191  18.0911156  29.2911878
  40.4742376   5.2661001  40.4601432  41.2152089   5.8668154  40.3805894
  40.7060299   4.5238639  39.9019474  35.6183714  10.4517368  38.7379661
  35.5037229   9.5502625  39.0386760  34.7628232  10.6981065  38.3864478
  42.6975552  18.3935108  40.3367162  42.2539406  17.6071487  40.0188067
  43.3592765  18.5814259  39.6711053  37.4562673  19.9230910  34.8627841
  38.0070098  19.7947973  34.0904834  36.6174149  20.2225799  34.5122733
  44.7956790  18.6737908  38.3648563  44.7775265  19.4946789  37.8728832
  45.7176710  18.5491984  38.5898704  41.2529844  16.1882038  39.2072072
  41.7858181  15.4270326  38.9771380  40.7243925  15.8955690  39.9496226
  44.4199539   1.2942104  34.7365713  44.0763808   2.1843746  34.6604824
  44.7878502   1.1043761  33.8735298  32.4885390  13.6175634  27.5554316
  33.3260612  14.0272643  27.3388023  32.6663657  12.6775076  27.5254509
  44.3849822  11.2850715  23.2438149  43.8696445  12.0555320  23.4826536
  44.1127130  10.6115851  23.8671210  41.9696933   6.1300416  28.3023387
  41.1138529   5.7407266  28.1229026  42.3823884   6.2092377  27.4423172
  43.4996079   3.6646759  32.7014947  42.9960875   3.6276894  31.8882752
  43.7926686   4.5739502  32.7611603  39.7438965   3.7485489  31.7081128
  40.6091962   3.5528297  31.3487018  39.8116474   3.5195841  32.6350485
  49.3584096  14.0383070  25.1791322  48.5813539  13.6994229  24.7346484
  50.0375577  14.0435693  24.5046287  44.1736125   9.1577807  25.0697930
  43.8686260   9.4723956  25.9208073  45.1266567   9.2359227  25.1125263
  42.6182557  15.3168030  26.7190884  42.0903918  14.5820790  26.4064121
  42.1170059  16.0942707  26.4730852  47.5975403  13.5117051  31.8357930
  46.9399077  14.2016312  31.9238059  48.4015802  13.9013483  32.1791916
  37.3501284   5.9787697  29.0797495  37.9245036   5.7562878  28.3470688
  37.9372267   6.0476391  29.8326097  46.4080862  11.8661424  29.8861872
  46.9212743  12.4991415  30.3883581  47.0582085  11.2662619  29.5205232
  39.6523952   2.8528946  27.8072565  38.9988364   2.5377963  27.1829179
  39.6104426   2.2304686  28.5332388  43.6703236  21.8445748  22.6422543
  42.9964935  22.1477445  23.2507501  44.0569058  22.6474828  22.2928000
  42.8861692   9.3410879  32.1320212  41.9684254   9.5625826  31.9741900
  43.3021836   9.4157190  31.2731920  43.6696740  10.7402295  27.2622893
  44.4168559  11.2523692  26.9530015  43.9388330  10.4186348  28.1227286
  41.9423390  13.2360836  24.2449847  41.0334610  12.9519868  24.3422317
  41.9718474  13.6559914  23.3853154  47.1742658  16.8467425  28.0141014
  46.7204985  16.0058335  28.0706205  46.5436624  17.4828823  28.3515795
  46.1175577   7.7759411  29.2441682  45.3798334   7.2636797  29.5751924
  46.3702351   7.3359793  28.4324959  45.6175597  18.6843922  28.9490833
  45.9098571  19.2448979  28.2303198  46.1274218  18.9772483  29.7043992
  46.2187205   0.5535663  29.8383451  46.5246081  -0.3066974  29.5509366
  46.9439809   1.1453283  29.6382445  32.5111561  10.9566350  28.2265049
  32.3135961  10.3635710  27.5016116  31.9558225  10.6518560  28.9440988
  40.4908284  10.8489456  30.3459642  40.5456894   9.8963293  30.2702119
  39.6799486  11.0048895  30.8300941  41.6399478  14.7769579  21.5837925
  41.2018908  14.0605438  21.1243563  42.3809919  15.0045694  21.0223017
  38.4300644   9.4666516  28.1050021  37.6168510   9.7660686  28.5115213
  38.9259638   9.0722205  28.8224503  40.5809222  19.4624273  30.0384286
  40.5385401  19.6885119  29.1092818  41.4971921  19.2287647  30.1870087
  44.0274856   9.9308340  36.9364915  44.3824244  10.1579813  37.7959381
  44.6746987  10.2626717  36.3142170  49.7572593  13.0526776  27.6414244
  49.6190491  13.2428372  26.7135433  49.4008812  13.8146159  28.0982295
  37.9214719   7.0384871  33.7211256  38.5614098   6.8973630  33.0234219
  37.0892250   6.7519385  33.3449858  49.7841972  15.1203303  32.6525515
  50.2178479  15.0278592  33.5008570  50.4973553  15.0960804  32.0145531
  38.6975023  16.3387302  29.8346248  39.4915621  15.8437622  29.6328823
  37.9866715  15.8105165  29.4713954  43.5169867  18.7205397  34.1858616
  43.5706890  19.2896334  34.9536332  42.6484649  18.8907282  33.8212653
  35.0057786  10.4830384  25.9106001  34.0755374  10.4214839  26.1275963
  35.1015258   9.9606336  25.1142642  34.9243335   7.0085196  28.4984243
  35.1850153   7.9230530  28.3893403  35.7460508   6.5409639  28.6480856
  36.3968261   8.4222954  35.6683067  37.0691314   8.2140316  35.0195716
  35.5698047   8.2245040  35.2288300  50.6457522  15.1627004  35.1858401
  50.8393412  16.0672814  35.4317676  50.5458140  14.7034423  36.0196986
  42.2993833   5.0484894  37.6848728  41.6521748   5.7474844  37.5913205
  43.0694848   5.4821038  38.0524976  45.7072631  15.3133747  40.7599281
  45.5558137  15.0844298  39.8429365  45.6977310  16.2704348  40.7730626
  42.4757967  12.8865659  35.7445548  43.4050027  13.0376819  35.5714515
  42.0548997  12.9749680  34.8894194  41.2746299  16.9116324  33.5144086
  41.1357385  16.5435108  34.3870024  40.4860895  17.4263963  33.3428043
  41.8694451  22.0125420  24.8569622  42.0446207  21.5413463  25.6715245
  41.1827239  22.6391186  25.0850883  42.8251514  16.2897926  30.9032923
  42.4901347  16.2498696  31.7990573  42.3255460  15.6242642  30.4303334
  36.7995758  11.6965557  36.4285504  36.6615556  10.9645795  37.0297044
  37.7100681  11.6074457  36.1469692  45.7610706  13.6353961  21.1769983
  45.1439876  12.9100789  21.0803036  45.2927194  14.3963321  20.8337057
  39.4278059  11.4085516  35.9169184  40.1377677  10.7678708  35.8755803
  39.3847367  11.6598411  36.8395365  47.4164837  18.3452869  38.8375763
  47.3577384  17.6612089  38.1706346  47.8184356  19.0871859  38.3856389
  38.1406993   8.3950734  37.7364824  37.6044350   7.9441472  38.3886420
  37.5523701   8.5296643  36.9935288  36.4355536  25.1614783  31.6309482
  36.6752134  25.7933307  32.3088501  35.5924733  24.8102823  31.9174842
  47.4182245  16.3092453  37.0689743  46.5309023  15.9718375  37.1916142
  47.9880796  15.5775484  37.3058508  29.0711392  12.6416545  30.3932794
  29.7582432  12.3278275  29.8053810  28.9159520  13.5457909  30.1200046
  33.8746114   7.5306741  34.8217818  33.7904303   6.9232411  34.0868228
  33.0528820   8.0215760  34.8227314  40.9483398  20.9693905  34.0350986
  40.8753570  21.7748877  34.5470291  40.5060791  21.1685871  33.2099008
  40.7373178  20.2065675  27.5453808  39.9540700  20.7487356  27.6392032
  41.4365923  20.7239655  27.9448049  44.0469828   6.0160305  30.1888013
  44.5438527   5.2630267  29.8689083  43.2756809   6.0524622  29.6231222
  51.8999585  11.7200670  31.8306305  51.8889461  12.6025386  31.4600238
  51.0316965  11.3672221  31.6360842  43.4082082  20.8680739  36.1909145
  44.1210054  21.5028204  36.1185046  42.9172110  20.9644605  35.3749147
  45.1299608  14.7731992  27.7626437  44.1955887  14.8933455  27.5931141
  45.3076277  13.8704459  27.4986446  40.6304797   8.1577688  29.9159698
  40.2602584   7.6048728  30.6040603  41.1263889   7.5535821  29.3634698
  48.5172160  10.6149311  28.2976471  48.9832612  11.4477303  28.2236773
  48.9679660  10.1494293  29.0021729  38.4593995  18.6175183  37.0114716
  39.1603455  19.2511666  37.1644110  37.9889110  18.9589914  36.2510355
  46.5848391  16.9593133  25.2962623  46.8608235  16.8449727  26.2056497
  45.7152890  16.5610618  25.2574796  46.4888823   2.9829898  32.3367372
  45.5751902   3.2134125  32.5049579  46.9181924   3.0668343  33.1881404
  46.2595281  11.1719790  34.8367266  45.6066731  11.4195698  34.1819719
  46.6375661  10.3583929  34.5029743  43.2202455  21.2079484  28.9395436
  43.4024849  20.3901140  29.4023189  44.0435441  21.4247176  28.5020326
  43.5544620  20.1347669  26.2010485  44.0832387  19.6240123  25.5880647
  43.8172840  19.8190199  27.0656018  42.3082854  11.9139601  41.3233303
  41.6323491  11.8133731  41.9935678  43.1310488  11.7578815  41.7869300
  34.0561713  18.1511538  33.9445818  34.6415150  17.4055226  34.0773723
  33.8586552  18.4615495  34.8282482  36.9100368  21.1862785  28.9608261
  36.2410744  21.6708913  28.4772301  36.7713238  21.4332006  29.8751639
  28.6479368  10.7217138  32.6650262  28.6863467  10.1880729  33.4587380
  28.1419661  10.1952344  32.0461239  41.0505637  23.2206529  35.5590919
  41.6023945  23.3838150  36.3240004  41.3911830  23.8110967  34.8870944
  36.0270130   5.5681679  36.1612804  36.0911457   6.4296510  35.7490202
  35.9637250   4.9555680  35.4285162  35.5022403   7.6404811  39.8085838
  36.1294442   7.2581889  40.4223362  34.6450322   7.4219013  40.1741531
  45.9016511  18.0467786  41.4139574  46.4456415  18.6597745  40.9194528
  45.3203356  18.6047365  41.9306587  44.1874024  21.1688504  32.5454601
  44.0625164  20.3678244  32.0365547  44.8453115  21.6634698  32.0568571
  35.8082192   7.5237237  31.7231742  35.0868778   8.1373205  31.5839215
  36.5975448   8.0595002  31.6448387  46.2508933  18.9697525  34.1734151
  45.3039268  18.8502876  34.1012478  46.5991706  18.0820023  34.2560413
  38.6108506   4.8591663  37.9972393  39.1342908   5.1053960  38.7598703
  38.3920839   5.6911698  37.5775531  43.2555366  18.7650241  30.3738504
  43.1080328  17.8366948  30.5546074  44.0808859  18.7870331  29.8895579
  37.1217610   7.4168308  26.2318996  37.4613683   7.9454229  25.5097604
  37.5689731   7.7548714  27.0077562  46.8589488  19.5878799  31.4603376
  47.7836035  19.3821661  31.3227828  46.6904791  19.3395201  32.3692718
  39.8161051   5.8005359  35.6822064  39.4757871   5.0013172  36.0842744
  39.1100057   6.1007069  35.1098897  40.4677523   2.8854671  34.1349387
  41.2903592   2.4115149  34.0128277  40.7115586   3.6645155  34.6348073
  43.2516880   6.6188078  25.3670621  43.4680495   7.5012716  25.0659449
  42.7710947   6.2274292  24.6376263  37.9916102   9.5773792  31.9441365
  37.8460682   9.8914095  32.8365647  37.5141305  10.1958692  31.3912264
  39.8512485   6.5676340  31.9922255  39.8374053   5.6717433  31.6554553
  40.5684913   6.5747003  32.6260541  41.7038615   7.0013680  34.0375382
  41.4456393   7.9230750  34.0359713  41.1723656   6.6044114  34.7275847
  46.6484804  20.1064467  26.8165468  46.8221682  19.5410889  26.0639320
  47.1413695  20.9065362  26.6344958  32.4661764  12.1179136  34.8829027
  31.9215232  12.8938944  35.0149301  33.3441114  12.4649940  34.7248148
  39.2549380   5.4490720  27.2609825  39.3765292   4.5207366  27.4600713
  38.9651423   5.4629406  26.3488141  42.1240571   3.1345630  30.3976545
  42.1462268   3.1984963  29.4428525  42.5408630   2.2950139  30.5917051
  52.5024195  12.8700890  28.4355768  52.9455341  12.1208215  28.0374891
  51.6250705  12.8611026  28.0529500  47.6359976  19.4231231  23.9162366
  48.3310881  20.0437924  24.1349681  47.9783127  18.5726583  24.1914744
  33.2527786  11.2449032  37.7759183  32.5109522  11.3931668  38.3623814
  32.9320530  11.5057298  36.9125933  49.5351400  16.8730937  25.4449697
  50.0602724  17.2118210  24.7199017  49.4473752  15.9377952  25.2612831
  41.1971448  20.7865011  37.5739573  41.5058575  20.5414157  38.4462273
  41.9946930  20.9911649  37.0858444  41.2192060  22.9402920  29.8044950
  40.7797051  22.4479299  30.4977807  41.9700177  22.3975888  29.5637025
  33.6984399  19.1314461  29.8069578  34.5242419  18.8318233  29.4268222
  33.3478451  18.3622083  30.2559367  38.6665932  18.4840929  31.8767252
  38.0445942  17.8211634  31.5769480  39.3370799  18.5102061  31.1940899
  31.8993004  17.0500787  30.7658512  31.0624913  16.6222962  30.5842513
  31.8716650  17.2433231  31.7029303  38.7390460   6.9622717  41.4699758
  38.7878615   7.8384840  41.0877527  39.2812974   6.4200110  40.8971401
  49.2245306  17.5063841  40.7500895  48.4340849  17.4887979  40.2105394
  48.9878660  18.0452134  41.5049931  49.3443181  14.3556307  38.0633623
  49.3941186  14.1906314  39.0049146  49.2357104  13.4883566  37.6731504
  38.2279439  17.0344853  25.3525712  38.3767560  17.7180317  24.6992385
  39.0345883  17.0149943  25.8675168  46.6346943  10.3387235  39.3792930
  47.5356806  10.1993700  39.0876928  46.7094918  10.5041690  40.3191108
  40.9689748   7.7154090  38.2246116  40.0993058   8.0087656  37.9528705
  41.2049229   8.2994535  38.9453380  50.8461378  16.7753248  38.3075645
  50.5546186  17.1383229  39.1439106  50.2333509  16.0620257  38.1288977
  52.0457060  14.3406128  30.8278215  52.8803951  14.7795932  30.9915775
  52.1816189  13.8644781  30.0086461  49.0948566  11.8985863  36.7755703
  49.5702687  12.0913509  35.9674554  48.1714131  11.9545049  36.5299087
  35.9832072  13.0610030  26.3586781  35.7378114  12.1572360  26.5566991
  36.1527987  13.0627181  25.4166259  43.6728782   3.9333707  35.7411537
  44.1910726   4.6694734  35.4158025  43.3183915   4.2397700  36.5758296
  43.9241376   0.3533989  31.2612433  44.2043130  -0.3142822  31.8872860
  44.7091983   0.5463085  30.7487097  41.7274845  19.5292983  22.8237460
  41.1548812  20.1483170  22.3707932  42.3007639  20.0792345  23.3577382
  47.7950235   8.7751623  35.0084008  48.7467658   8.8749721  35.0296233
  47.6253685   7.9829892  35.5182093  45.8164614   5.8607206  35.1943409
  45.2214546   6.1412219  34.4989898  45.5314311   6.3501107  35.9660151
  44.9472105  19.8130133  23.9546042  45.8802778  19.7475695  24.1578917
  44.8595318  20.6486400  23.4960575  47.5760121  19.1296003  20.9149990
  47.4973753  18.7955867  21.8085747  48.3969788  19.6217771  20.9141462
  50.2738313  11.9957743  34.1226308  50.2414633  11.0573744  34.3085992
  50.8838936  12.0741780  33.3892133  50.4232801   8.7868786  34.1684591
  49.9071850   8.0027243  33.9814520  51.3072750   8.4587503  34.3331111
  48.0843528   2.5309802  30.1280404  47.8868349   2.2224890  31.0123736
  48.6943234   3.2571441  30.2578334  56.0914862  13.0573750  33.2632345
  56.8218251  12.7959038  33.8240048  55.4821808  12.3202472  33.3034413
  54.1730160  11.1981612  33.8606796  53.4463323  11.0637577  33.2523288
  53.7577446  11.5058441  34.6663514  41.9960336  14.9171542  41.6254169
  42.9163345  15.0950141  41.8194216  41.9609919  13.9727587  41.4733868
  31.2142501  10.1110136  30.5507444  30.8945285   9.2575444  30.2581818
  30.6675929  10.3258714  31.3065411  34.9922409  12.8272577  34.2676950
  35.2108418  13.7589684  34.2864984  35.4048182  12.4680551  35.0531754
  41.9126626   3.3340662  26.2552639  41.1027355   2.9887747  26.6307885
  42.6011043   3.0248206  26.8440250  43.8417175   2.4118709  27.8776935
  44.3948213   2.8314162  28.5366958  44.0787261   1.4854457  27.9199891
  39.8650274   8.4005782  43.6579699  39.7647001   9.3500139  43.5891790
  39.6471816   8.0724021  42.7855769  31.0830761  13.7313047  32.5200565
  30.3894232  13.3167000  32.0070520  31.8303752  13.7733584  31.9233984
  47.2195982   4.5219234  27.3855600  46.6394651   5.1804038  27.0033652
  46.9531914   3.6996578  26.9743017  45.6699548   3.9224292  29.5876920
  46.1699326   4.0340826  28.7791239  46.3135156   3.6185344  30.2277728
  39.7281544  11.8302921  42.4744761  39.2448626  12.6303281  42.6808650
  39.8142483  11.8410866  41.5212205  32.9967503  13.6631301  30.3966580
  32.9738192  13.7618988  29.4448463  33.3068140  14.5096452  30.7183746
  35.6554881  15.7207456  34.5113195  36.6098135  15.6891398  34.4443126
  35.4567405  15.2598080  35.3263421  36.2454263  14.2908572  37.0783992
  37.0647152  14.7852651  37.1018830  36.5191071  13.3740540  37.0501560
  46.0020860   6.6819324  26.4411948  45.1146715   6.9668975  26.2232143
  46.4174849   6.5213088  25.5939225  49.3535396   6.7065845  30.1566287
  50.1295786   7.1962298  30.4290904  48.6283530   7.1323899  30.6138157
  51.7907954   7.4193464  31.2140228  52.3852445   7.1789200  30.5033536
  51.8634538   6.7000595  31.8413764  34.0105110  21.2627075  31.5283393
  33.8759578  20.5027476  30.9621391  33.5937172  21.9867975  31.0612181
  45.1464073  16.4463999  20.5359968  45.8499923  16.6514001  21.1517623
  44.4226722  17.0140761  20.8009051  45.9761883  12.1973860  26.6562238
  45.9197085  12.6542412  25.8169870  46.5290226  11.4364545  26.4785081
  49.7866689   7.9863592  27.4812358  49.5303624   7.5860228  28.3120565
  49.1619557   8.7007386  27.3562497  54.0979027  10.7259665  29.9883649
  53.5378585  10.7952855  30.7615211  53.4922531  10.5500650  29.2683145
  37.1674236  22.1596392  31.7401835  37.0506620  23.1041825  31.6380525
  36.3466682  21.8569954  32.1287634  47.0550771  16.8846528  22.5858428
  47.8896374  16.4527727  22.4035903  46.8935113  16.7128542  23.5135322
  46.7096663  13.3878641  23.9514767  46.6545467  13.2222913  23.0103211
  46.0842718  14.0954674  24.1076957  31.4989178   8.6246706  37.7776189
  32.1448041   8.1145660  38.2663415  31.2906329   9.3615387  38.3519615
  44.0242570  15.6927553  43.2768330  44.8933730  15.8668206  42.9154965
  43.5449321  16.5121970  43.1544059  38.1928750  22.8124654  34.9557764
  39.0955997  22.8448265  35.2724259  37.9666120  21.8825105  34.9704099
  39.9482352  21.5655641  31.6167842  38.9977983  21.5657502  31.5032215
  40.2514838  20.8188375  31.1003877  43.8344908  -0.5170473  27.7846022
  43.0677303  -1.0711986  27.9302705  44.2455613  -0.4448604  28.6460174
  35.8386669   5.7714323  41.8751204  36.7018130   5.4151128  42.0854528
  35.2652079   5.4328218  42.5626608  55.6835046  27.4016179  32.6813605
  56.3213456  27.2822927  31.9776945  55.5655889  28.3497023  32.7401557
  52.4924752  27.3543607  32.6175129  52.1543263  27.2384672  31.7295664
  53.3614520  26.9534772  32.5976135  48.3511568  29.2079084  28.6072020
  47.7876433  29.1169021  27.8388308  48.2363963  28.3878988  29.0874513
  52.9744535  28.5078459  38.5761335  52.9633176  28.1131257  37.7041839
  53.1365174  27.7744532  39.1695106  45.8976000  30.7030275  31.4456241
  46.6897291  30.3621100  31.0302540  46.1372650  30.8125250  32.3658394
  53.9311126  32.8750051  23.9186485  53.2799106  33.4604132  23.5320499
  54.7255489  33.4056246  23.9781523  47.8566753  29.9639189  24.3173620
  48.6297629  29.4168176  24.1786495  48.2092152  30.8283438  24.5288081
  49.6951796  31.2915571  37.5240519  49.4041662  32.1961202  37.4087185
  50.3308780  31.3332098  38.2384588  50.6208003  28.6692419  34.1141879
  51.2171575  28.4448442  33.3998841  50.6782974  27.9277165  34.7167326
  50.1933031  26.1231855  21.9492069  50.4458552  25.6013376  21.1875532
  49.2557590  25.9598000  22.0518753  55.2376314  25.1267633  29.7566813
  56.0239403  24.7087056  29.4057230  55.5015018  26.0313725  29.9248461
  55.4086391  30.5640483  24.4555470  54.7732224  30.6375110  25.1676374
  55.0783798  31.1534082  23.7774549  60.6384741  25.0642866  30.6599791
  61.3709913  24.4942083  30.8937621  59.8824097  24.6764467  31.1006297
  49.9129320  28.0259961  24.1516444  49.7965578  27.3504864  24.8197529
  50.0231580  27.5392335  23.3348597  52.2560861  27.4870108  27.8563134
  51.8919068  26.9600729  28.5676055  53.1127977  27.0968577  27.6829619
  58.1610162  18.7764440  35.1194400  57.8293486  19.6459851  34.8955615
  57.5655775  18.4600724  35.7988430  51.8966348  22.5160007  22.8524482
  52.0640750  23.3840244  23.2194953  51.7063517  22.6787289  21.9285771
  54.6541681  30.9776986  34.5190313  54.3542404  31.8802025  34.4106120
  54.3092741  30.7109170  35.3711465  48.1054163  27.4290783  30.5527017
  47.1804659  27.2966997  30.7604709  48.3538576  28.2085002  31.0496959
  58.0538825  23.4959527  32.1987750  57.1455702  23.4274935  31.9046511
  58.0026421  23.9731471  33.0269575  51.8755569  24.9717665  23.8371149
  51.7555194  25.4174716  24.6756629  51.1808157  25.3202983  23.2784687
  45.4662974  27.0724057  31.3870806  45.5955355  27.3258536  32.3010218
  44.7860425  27.6651765  31.0675461  49.6362461  37.7421307  27.4861280
  49.5586491  38.6929132  27.5649761  49.0324105  37.3967179  28.1436207
  52.1279691  24.9149172  40.1422647  51.3513025  25.4743092  40.1325512
  52.7670254  25.4005955  40.6637517  59.9200471  21.6975965  33.9765624
  59.2774852  21.9908498  33.3305418  59.4155400  21.5828885  34.7818820
  57.5740635  25.4439138  24.6651483  58.4858491  25.6766525  24.4899181
  57.0650282  26.0276182  24.1026562  50.3826063  27.7234625  39.7040614
  51.1240747  28.2619669  39.4275438  49.6763048  28.3500914  39.8612166
  55.8581403  29.8663766  38.3012776  56.2664759  29.4246176  37.5567408
  55.1358664  29.2916393  38.5546969  52.2112473  24.8036373  35.6746333
  53.0573668  25.2275786  35.8180982  52.1511110  24.1469997  36.3684896
  56.1810217  30.4264957  32.0565065  55.5519080  30.5910671  31.3541132
  55.7935879  30.8406566  32.8276029  60.0599449  31.3619394  29.4109428
  59.3750487  31.7418296  28.8606462  60.1443299  31.9714721  30.1441376
  55.3611918  22.4640741  37.3327506  55.1172850  23.2182802  36.7961782
  55.6371849  22.8426089  38.1674753  57.3150381  29.0079353  36.0104772
  57.5267276  29.6511113  35.3339153  57.2680129  28.1741670  35.5426702
  54.9176610  21.6197174  32.9141344  54.0561089  21.9178428  33.2058082
  54.9439044  21.8367573  31.9822377  51.7338179  30.1639365  29.3215150
  52.1976525  30.4427068  28.5319772  51.4694977  29.2622809  29.1388240
  48.6262260  29.7110846  32.2594913  49.1963617  30.1398115  31.6212397
  49.2170372  29.4293431  32.9579099  50.6707065  26.2862517  26.1304715
  51.3731109  26.7383561  26.5978641  50.3387694  25.6446336  26.7584608
  49.1187427  24.8774274  40.5055924  48.4886087  25.5590555  40.7391321
  49.0123515  24.7657355  39.5609062  44.4132399  24.5446070  31.4321848
  43.6231453  24.8003598  30.9561959  44.9043647  25.3594408  31.5373889
  58.4296209  31.8851309  34.1827129  59.2513652  31.4831496  33.9009811
  58.4258612  31.7819543  35.1343245  46.3647145  24.9090649  28.3905325
  45.5678308  25.0209343  28.9088821  46.1372737  25.2477301  27.5246216
  52.1952812  31.4335352  36.3387840  52.2597245  31.8955759  37.1746011
  51.4863736  30.8032717  36.4670149  42.6970102  24.7976560  33.8636839
  42.9478141  25.6823570  34.1294415  43.2329651  24.6181162  33.0911931
  66.5202202  28.2290057  30.5312101  65.7665910  27.6597455  30.3756105
  66.6549743  28.1952722  31.4782735  51.9100830  33.1003460  26.2066820
  51.7746505  33.9454995  26.6351668  52.4510642  33.3022737  25.4432754
  48.3968170  19.1795040  42.8681175  48.0035115  18.6261238  43.5428819
  49.2134310  19.4905618  43.2587693  45.3630227  30.6178898  26.7794745
  45.8754748  31.4122148  26.9300310  46.0152940  29.9205188  26.7128347
  47.1725112  33.7344654  28.8617498  47.3491740  34.6562619  28.6738482
  47.9681945  33.4203073  29.2911878  51.3136130  20.5952919  40.4601432
  52.0545844  21.1960072  40.3805894  51.5454053  19.8530556  39.9019474
  46.4577469  25.7809286  38.7379661  46.3430984  24.8794543  39.0386760
  45.6021986  26.0272983  38.3864478  53.5369306  33.7227026  40.3367162
  53.0933160  32.9363405  40.0188067  54.1986520  33.9106177  39.6711053
  48.2956427  35.2522828  34.8627841  48.8463853  35.1239891  34.0904834
  47.4567903  35.5517717  34.5122733  55.6350544  34.0029826  38.3648563
  55.6169020  34.8238707  37.8728832  56.5570464  33.8783901  38.5898704
  52.0923598  31.5173956  39.2072072  52.6251935  30.7562244  38.9771380
  51.5637680  31.2247607  39.9496226  55.2593293  16.6234022  34.7365713
  54.9157563  17.5135663  34.6604824  55.6272256  16.4335679  33.8735298
  43.3279144  28.9467552  27.5554316  44.1654366  29.3564560  27.3388023
  43.5057412  28.0066994  27.5254509  55.2243576  26.6142633  23.2438149
  54.7090200  27.3847237  23.4826536  54.9520885  25.9407769  23.8671210
  52.8090687  21.4592333  28.3023387  51.9532284  21.0699184  28.1229026
  53.2217639  21.5384294  27.4423172  54.3389834  18.9938677  32.7014947
  53.8354629  18.9568812  31.8882752  54.6320441  19.9031419  32.7611603
  50.5832720  19.0777406  31.7081128  51.4485716  18.8820215  31.3487018
  50.6510229  18.8487758  32.6350485  60.1977850  29.3674987  25.1791322
  59.4207293  29.0286147  24.7346484  60.8769331  29.3727610  24.5046287
  55.0129879  24.4869725  25.0697930  54.7080015  24.8015874  25.9208073
  55.9660321  24.5651145  25.1125263  53.4576311  30.6459948  26.7190884
  52.9297673  29.9112708  26.4064121  52.9563814  31.4234624  26.4730852
  58.4369157  28.8408969  31.8357930  57.7792832  29.5308230  31.9238059
  59.2409556  29.2305400  32.1791916  48.1895039  21.3079614  29.0797495
  48.7638791  21.0854796  28.3470688  48.7766021  21.3768309  29.8326097
  57.2474616  27.1953341  29.8861872  57.7606498  27.8283333  30.3883581
  57.8975840  26.5954537  29.5205232  48.5164626  23.3384075  23.0993380
  47.6801938  23.6758762  23.4202655  48.3769396  23.2033055  22.1620517
  50.4917706  18.1820863  27.8072565  49.8382119  17.8669880  27.1829179
  50.4498181  17.5596604  28.5332388  51.6028911  28.4640158  19.7225857
  50.6955973  28.2329412  19.9217006  52.0999943  27.6677778  19.9099838
  54.5096990  37.1737666  22.6422543  53.8358689  37.4769362  23.2507501
  54.8962812  37.9766746  22.2928000  53.7255447  24.6702797  32.1320212
  52.8078008  24.8917744  31.9741900  54.1415590  24.7449107  31.2731920
  54.5090495  26.0694212  27.2622893  55.2562314  26.5815610  26.9530015
  54.7782084  25.7478265  28.1227286  52.7817145  28.5652753  24.2449847
  51.8728364  28.2811786  24.3422317  52.8112229  28.9851832  23.3853154
  58.0136412  32.1759343  28.0141014  57.5598739  31.3350253  28.0706205
  57.3830379  32.8120741  28.3515795  56.9569332  23.1051329  29.2441682
  56.2192089  22.5928715  29.5751924  57.2096105  22.6651710  28.4324959
  56.4569351  34.0135839  28.9490833  56.7492326  34.5740896  28.2303198
  56.9667972  34.3064400  29.7043992  57.0580959  15.8827581  29.8383451
  57.3639836  15.0224944  29.5509366  57.7833564  16.4745201  29.6382445
  43.3505315  26.2858267  28.2265049  43.1529715  25.6927628  27.5016116
  42.7951979  25.9810477  28.9440988  51.3302039  26.1781374  30.3459642
  51.3850649  25.2255210  30.2702119  50.5193241  26.3340813  30.8300941
  52.4793233  30.1061497  21.5837925  52.0412663  29.3897356  21.1243563
  53.2203673  30.3337612  21.0223017  49.2694399  24.7958434  28.1050021
  48.4562264  25.0952604  28.5115213  49.7653393  24.4014122  28.8224503
  51.4202977  34.7916190  30.0384286  51.3779155  35.0177037  29.1092818
  52.3365675  34.5579565  30.1870087  54.8668610  25.2600258  36.9364915
  55.2217998  25.4871731  37.7959381  55.5140742  25.5918635  36.3142170
  60.5966347  28.3818694  27.6414244  60.4584246  28.5720290  26.7135433
  60.2402566  29.1438077  28.0982295  48.7608474  22.3676789  33.7211256
  49.4007853  22.2265548  33.0234219  47.9286004  22.0811302  33.3449858
  60.6235727  30.4495221  32.6525515  61.0572234  30.3570510  33.5008570
  61.3367308  30.4252721  32.0145531  49.5368777  31.6679219  29.8346248
  50.3309376  31.1729540  29.6328823  48.8260470  31.1397083  29.4713954
  54.3563622  34.0497315  34.1858616  54.4100644  34.6188251  34.9536332
  53.4878403  34.2199200  33.8212653  45.8451541  25.8122301  25.9106001
  44.9149129  25.7506757  26.1275963  45.9409013  25.2898254  25.1142642
  45.7637090  22.3377114  28.4984243  46.0243907  23.2522447  28.3893403
  46.5854262  21.8701557  28.6480856  47.2362015  23.7514871  35.6683067
  47.9085069  23.5432233  35.0195716  46.4091802  23.5536957  35.2288300
  61.4851277  30.4918922  35.1858401  61.6787167  31.3964732  35.4317676
  61.3851895  30.0326341  36.0196986  53.1387587  20.3776812  37.6848728
  52.4915502  21.0766762  37.5913205  53.9088603  20.8112956  38.0524976
  56.5466385  30.6425664  40.7599281  56.3951892  30.4136216  39.8429365
  56.5371065  31.5996266  40.7730626  53.3151722  28.2157577  35.7445548
  54.2443782  28.3668737  35.5714515  52.8942752  28.3041598  34.8894194
  52.1140053  32.2408241  33.5144086  51.9751139  31.8727026  34.3870024
  51.3254650  32.7555881  33.3428043  52.7088205  37.3417338  24.8569622
  52.8839961  36.8705381  25.6715245  52.0220993  37.9683104  25.0850883
  53.6645269  31.6189844  30.9032923  53.3295101  31.5790614  31.7990573
  53.1649214  30.9534560  30.4303334  47.6389513  27.0257474  36.4285504
  47.5009310  26.2937713  37.0297044  48.5494436  26.9366374  36.1469692
  56.6004460  28.9645879  21.1769983  55.9833631  28.2392707  21.0803036
  56.1320949  29.7255239  20.8337057  50.2671813  26.7377434  35.9169184
  50.9771432  26.0970626  35.8755803  50.2241121  26.9890328  36.8395365
  58.2558592  33.6744787  38.8375763  58.1971138  32.9904007  38.1706346
  58.6578110  34.4163777  38.3856389  48.9800747  23.7242651  37.7364824
  48.4438104  23.2733390  38.3886420  48.3917456  23.8588560  36.9935288
  47.2749291  40.4906701  31.6309482  47.5145889  41.1225225  32.3088501
  46.4318487  40.1394741  31.9174842  48.3903006  23.1831303  20.2991287
  47.5132472  23.0620104  19.9353534  48.8660759  22.3917381  20.0470176
  58.2575999  31.6384371  37.0689743  57.3702778  31.3010293  37.1916142
  58.8274550  30.9067402  37.3058508  39.9105146  27.9708463  30.3932794
  40.5976186  27.6570193  29.8053810  39.7553275  28.8749827  30.1200046
  44.7139868  22.8598659  34.8217818  44.6298057  22.2524329  34.0868228
  43.8922575  23.3507677  34.8227314  51.7877153  36.2985823  34.0350986
  51.7147324  37.1040795  34.5470291  51.3454546  36.4977789  33.2099008
  51.5766932  35.5357593  27.5453808  50.7934454  36.0779273  27.6392032
  52.2759677  36.0531573  27.9448049  54.8863582  21.3452223  30.1888013
  55.3832282  20.5922185  29.8689083  54.1150564  21.3816539  29.6231222
  62.7393340  27.0492588  31.8306305  62.7283216  27.9317304  31.4600238
  61.8710719  26.6964139  31.6360842  54.2475836  36.1972657  36.1909145
  54.9603808  36.8320122  36.1185046  53.7565865  36.2936523  35.3749147
  55.9693363  30.1023910  27.7626437  55.0349642  30.2225372  27.5931141
  56.1470031  29.1996377  27.4986446  51.4698551  23.4869606  29.9159698
  51.0996339  22.9340646  30.6040603  51.9657643  22.8827739  29.3634698
  59.3565914  25.9441229  28.2976471  59.8226367  26.7769221  28.2236773
  59.8073415  25.4786211  29.0021729  49.2987750  33.9467101  37.0114716
  49.9997209  34.5803584  37.1644110  48.8282865  34.2881832  36.2510355
  57.4242145  32.2885050  25.2962623  57.7001989  32.1741645  26.2056497
  56.5546644  31.8902535  25.2574796  57.3282577  18.3121816  32.3367372
  56.4145657  18.5426043  32.5049579  57.7575679  18.3960260  33.1881404
  57.0989036  26.5011708  34.8367266  56.4460486  26.7487616  34.1819719
  57.4769415  25.6875846  34.5029743  54.0596209  36.5371401  28.9395436
  54.2418604  35.7193057  29.4023189  54.8829195  36.7539094  28.5020326
  54.3938375  35.4639586  26.2010485  54.9226141  34.9532041  25.5880647
  54.6566595  35.1482117  27.0656018  53.1476609  27.2431519  41.3233303
  52.4717246  27.1425648  41.9935678  53.9704242  27.0870733  41.7869300
  44.8955468  33.4803456  33.9445818  45.4808904  32.7347144  34.0773723
  44.6980306  33.7907412  34.8282482  47.7494123  36.5154703  28.9608261
  47.0804498  37.0000831  28.4772301  47.6106993  36.7623924  29.8751639
  39.4873122  26.0509056  32.6650262  39.5257222  25.5172647  33.4587380
  38.9813415  25.5244261  32.0461239  51.8899391  38.5498447  35.5590919
  52.4417699  38.7130068  36.3240004  52.2305585  39.1402884  34.8870944
  46.8663885  20.8973596  36.1612804  46.9305211  21.7588427  35.7490202
  46.8031005  20.2847598  35.4285162  46.3416157  22.9696729  39.8085838
  46.9688196  22.5873806  40.4223362  45.4844076  22.7510931  40.1741531
  56.7410266  33.3759704  41.4139574  57.2850170  33.9889662  40.9194528
  56.1597111  33.9339283  41.9306587  43.1181700  24.7773158  25.7404193
  43.4135141  23.8683836  25.6871247  42.2169736  24.7560897  25.4185195
  55.0267779  36.4980422  32.5454601  54.9018918  35.6970162  32.0365547
  55.6846870  36.9926615  32.0568571  46.6475947  22.8529155  31.7231742
  45.9262533  23.4665122  31.5839215  47.4369203  23.3886919  31.6448387
  57.0902687  34.2989442  34.1734151  56.1433023  34.1794793  34.1012478
  57.4385460  33.4111940  34.2560413  49.4502260  20.1883581  37.9972393
  49.9736662  20.4345878  38.7598703  49.2314594  21.0203616  37.5775531
  44.8469542  22.4587256  25.8643518  44.5182248  21.5784635  25.6818624
  45.2008912  22.4034924  26.7519907  54.0949120  34.0942158  30.3738504
  53.9474083  33.1658866  30.5546074  54.9202614  34.1162249  29.8895579
  47.9611365  22.7460226  26.2318996  48.3007437  23.2746147  25.5097604
  48.4083485  23.0840632  27.0077562  57.6983242  34.9170717  31.4603376
  58.6229790  34.7113578  31.3227828  57.5298546  34.6687118  32.3692718
  50.6554806  21.1297276  35.6822064  50.3151626  20.3305089  36.0842744
  49.9493812  21.4298987  35.1098897  51.3071277  18.2146589  34.1349387
  52.1297347  17.7407067  34.0128277  51.5509341  18.9937072  34.6348073
  49.9479512  21.2434847  24.4312289  50.6687874  21.6216100  23.9276005
  49.3244816  21.9623724  24.5347266  54.0910635  21.9479996  25.3670621
  54.3074249  22.8304634  25.0659449  53.6104702  21.5566209  24.6376263
  48.8309856  24.9065709  31.9441365  48.6854437  25.2206012  32.8365647
  48.3535060  25.5250610  31.3912264  50.6906239  21.8968257  31.9922255
  50.6767808  21.0009351  31.6554553  51.4078667  21.9038921  32.6260541
  52.5432370  22.3305597  34.0375382  52.2850148  23.2522668  34.0359713
  52.0117410  21.9336032  34.7275847  57.4878558  35.4356385  26.8165468
  57.6615436  34.8702807  26.0639320  57.9807450  36.2357279  26.6344958
  43.3055518  27.4471054  34.8829027  42.7608986  28.2230862  35.0149301
  44.1834868  27.7941858  34.7248148  50.0943135  20.7782638  27.2609825
  50.2159046  19.8499284  27.4600713  49.8045177  20.7921324  26.3488141
  52.9634325  18.4637548  30.3976545  52.9856022  18.5276881  29.4428525
  53.3802384  17.6242057  30.5917051  63.3417950  28.1992808  28.4355768
  63.7849096  27.4500133  28.0374891  62.4644460  28.1902944  28.0529500
  58.4753731  34.7523149  23.9162366  59.1704636  35.3729842  24.1349681
  58.8176881  33.9018500  24.1914744  44.0921540  26.5740950  37.7759183
  43.3503276  26.7223585  38.3623814  43.7714284  26.8349216  36.9125933
  60.3745154  32.2022855  25.4449697  60.8996478  32.5410127  24.7199017
  60.2867507  31.2669870  25.2612831  52.0365203  36.1156928  37.5739573
  52.3452329  35.8706075  38.4462273  52.8340685  36.3203567  37.0858444
  52.0585815  38.2694838  29.8044950  51.6190805  37.7771217  30.4977807
  52.8093932  37.7267805  29.5637025  44.5378154  34.4606379  29.8069578
  45.3636174  34.1610151  29.4268222  44.1872206  33.6914001  30.2559367
  49.5059687  33.8132847  31.8767252  48.8839696  33.1503552  31.5769480
  50.1764554  33.8393979  31.1940899  42.7386759  32.3792705  30.7658512
  41.9018667  31.9514879  30.5842513  42.7110404  32.5725148  31.7029303
  49.5784214  22.2914635  41.4699758  49.6272370  23.1676758  41.0877527
  50.1206729  21.7492028  40.8971401  60.0639060  32.8355758  40.7500895
  59.2734604  32.8179897  40.2105394  59.8272415  33.3744052  41.5049931
  60.1836935  29.6848225  38.0633623  60.2334940  29.5198232  39.0049146
  60.0750859  28.8175484  37.6731504  49.0673194  32.3636770  25.3525712
  49.2161314  33.0472235  24.6992385  49.8739637  32.3441860  25.8675168
  57.4740698  25.6679153  39.3792930  58.3750560  25.5285617  39.0876928
  57.5488672  25.8333607  40.3191108  51.8083503  23.0446007  38.2246116
  50.9386812  23.3379573  37.9528705  52.0442983  23.6286452  38.9453380
  61.6855132  32.1045166  38.3075645  61.3939940  32.4675147  39.1439106
  61.0727263  31.3912174  38.1288977  62.8850814  29.6698046  30.8278215
  63.7197706  30.1087850  30.9915775  63.0209943  29.1936699  30.0086461
  59.9342320  27.2277781  36.7755703  60.4096442  27.4205427  35.9674554
  59.0107886  27.2836967  36.5299087  46.8225827  28.3901948  26.3586781
  46.5771869  27.4864278  26.5566991  46.9921741  28.3919098  25.4166259
  54.5122537  19.2625624  35.7411537  55.0304481  19.9986651  35.4158025
  54.1577670  19.5689618  36.5758296  46.0921474  24.1230305  23.8572943
  45.3990719  24.1974660  23.2012979  45.8473226  23.3590649  24.3794460
  54.7635131  15.6825907  31.2612433  55.0436885  15.0149096  31.8872860
  55.5485738  15.8755002  30.7487097  52.5668599  34.8584901  22.8237460
  51.9942566  35.4775088  22.3707932  53.1401393  35.4084262  23.3577382
  58.6343989  24.1043541  35.0084008  59.5861412  24.2041638  35.0296233
  58.4647440  23.3121809  35.5182093  56.6558369  21.1899124  35.1943409
  56.0608301  21.4704137  34.4989898  56.3708065  21.6793025  35.9660151
  55.7865859  35.1422051  23.9546042  56.7196532  35.0767612  24.1578917
  55.6989072  35.9778318  23.4960575  58.4153876  34.4587921  20.9149990
  58.3367507  34.1247785  21.8085747  59.2363543  34.9509689  20.9141462
  61.1132067  27.3249660  34.1226308  61.0808387  26.3865661  34.3085992
  61.7232691  27.4033697  33.3892133  52.9515398  26.1945713  20.1653512
  53.8974503  26.0651922  20.2341930  52.5729643  25.4560375  20.6422940
  61.2626556  24.1160704  34.1684591  60.7465604  23.3319161  33.9814520
  62.1466504  23.7879421  34.3331111  58.9237282  17.8601719  30.1280404
  58.7262104  17.5516808  31.0123736  59.5336988  18.5863358  30.2578334
  66.9308617  28.3865667  33.2632345  67.6612005  28.1250955  33.8240048
  66.3215562  27.6494389  33.3034413  65.0123914  26.5273530  33.8606796
  64.2857078  26.3929495  33.2523288  64.5971201  26.8350359  34.6663514
  52.8354090  30.2463460  41.6254169  53.7557100  30.4242059  41.8194216
  52.8003673  29.3019505  41.4733868  51.1358315  24.1195690  20.1008397
  50.2289770  23.8228803  20.1771111  51.4134296  23.8225508  19.2342684
  42.0536255  25.4402053  30.5507444  41.7339040  24.5867361  30.2581818
  41.5069684  25.6550631  31.3065411  45.8316163  28.1564494  34.2676950
  46.0502173  29.0881602  34.2864984  46.2441937  27.7972469  35.0531754
  52.7520381  18.6632580  26.2552639  51.9421109  18.3179665  26.6307885
  53.4404798  18.3540123  26.8440250  54.6810929  17.7410626  27.8776935
  55.2341968  18.1606080  28.5366958  54.9181015  16.8146374  27.9199891
  50.7044028  23.7297700  43.6579699  50.6040755  24.6792057  43.5891790
  50.4865570  23.4015939  42.7855769  49.9057100  20.9782625  20.2420377
  50.7676264  21.3037523  20.5016194  50.0907444  20.1914121  19.7293442
  41.9224515  29.0604965  32.5200565  41.2287987  28.6458918  32.0070520
  42.6697506  29.1025501  31.9233984  58.0589736  19.8511152  27.3855600
  57.4788405  20.5095956  27.0033652  57.7925669  19.0288496  26.9743017
  56.5093303  19.2516209  29.5876920  57.0093081  19.3632744  28.7791239
  57.1528910  18.9477262  30.2277728  50.5675298  27.1594839  42.4744761
  50.0842380  27.9595199  42.6808650  50.6536237  27.1702784  41.5212205
  43.8361258  28.9923219  30.3966580  43.8131946  29.0910906  29.4448463
  44.1461894  29.8388369  30.7183746  46.4948636  31.0499374  34.5113195
  47.4491889  31.0183316  34.4443126  46.2961159  30.5889997  35.3263421
  47.0848018  29.6200490  37.0783992  47.9040907  30.1144568  37.1018830
  47.3584826  28.7032458  37.0501560  56.8414614  22.0111242  26.4411948
  55.9540469  22.2960893  26.2232143  57.2568603  21.8505005  25.5939225
  60.1929150  22.0357763  30.1566287  60.9689540  22.5254215  30.4290904
  59.4677284  22.4615817  30.6138157  62.6301709  22.7485382  31.2140228
  63.2246200  22.5081118  30.5033536  62.7028293  22.0292513  31.8413764
  44.8498865  36.5918993  31.5283393  44.7153333  35.8319394  30.9621391
  44.4330927  37.3159893  31.0612181  55.9857828  31.7755917  20.5359968
  56.6893678  31.9805919  21.1517623  55.2620476  32.3432678  20.8009051
  56.8155638  27.5265778  26.6562238  56.7590839  27.9834329  25.8169870
  57.3683980  26.7656462  26.4785081  60.6260444  23.3155510  27.4812358
  60.3697378  22.9152145  28.3120565  60.0013312  24.0299304  27.3562497
  64.9372782  26.0551583  29.9883649  64.3772340  26.1244772  30.7615211
  64.3316285  25.8792568  29.2683145  48.0067991  37.4888310  31.7401835
  47.8900375  38.4333743  31.6380525  47.1860437  37.1861872  32.1287634
  57.8944525  32.2138446  22.5858428  58.7290129  31.7819644  22.4035903
  57.7328868  32.0420459  23.5135322  57.5490417  28.7170559  23.9514767
  57.4939221  28.5514831  23.0103211  56.9236473  29.4246592  24.1076957
  42.3382932  23.9538623  37.7776189  42.9841796  23.4437577  38.2663415
  42.1300083  24.6907305  38.3519615  54.8636324  31.0219471  43.2768330
  55.7327484  31.1960123  42.9154965  54.3843076  31.8413888  43.1544059
  50.8586543  18.2178668  23.5300086  50.8465213  19.1620508  23.6868356
  51.7509965  18.0348813  23.2359547  49.0322505  38.1416572  34.9557764
  49.9349751  38.1740182  35.2724259  48.8059875  37.2117023  34.9704099
  50.7876107  36.8947558  31.6167842  49.8371738  36.8949420  31.5032215
  51.0908593  36.1480293  31.1003877  54.6738662  14.8121445  27.7846022
  53.9071058  14.2579931  27.9302705  55.0849367  14.8843313  28.6460174
  46.6780423  21.1006241  41.8751204  47.5411885  20.7443045  42.0854528
  46.1045834  20.7620135  42.5626608  66.5228800  42.7308097  32.6813605
  67.1607210  42.6114844  31.9776945  66.4049643  43.6788941  32.7401557
  63.3318506  42.6835525  32.6175129  62.9937018  42.5676590  31.7295664
  64.2008275  42.2826690  32.5976135  59.1905322  44.5371001  28.6072020
  58.6270187  44.4460938  27.8388308  59.0757717  43.7170906  29.0874513
  63.8138289  43.8370377  38.5761335  63.8026930  43.4423175  37.7041839
  63.9758929  43.1036449  39.1695106  56.7369754  46.0322193  31.4456241
  57.5291046  45.6913018  31.0302540  56.9766404  46.1417168  32.3658394
  64.7704881  48.2041969  23.9186485  64.1192861  48.7896050  23.5320499
  65.5649244  48.7348164  23.9781523  58.6960508  45.2931106  24.3173620
  59.4691384  44.7460093  24.1786495  59.0485907  46.1575356  24.5288081
  60.5345551  46.6207489  37.5240519  60.2435417  47.5253119  37.4087185
  61.1702535  46.6624016  38.2384588  61.4601757  43.9984337  34.1141879
  62.0565330  43.7740359  33.3998841  61.5176729  43.2569083  34.7167326
  61.0326786  41.4523772  21.9492069  61.2852306  40.9305294  21.1875532
  60.0951345  41.2889918  22.0518753  66.0770069  40.4559551  29.7566813
  66.8633158  40.0378974  29.4057230  66.3408773  41.3605643  29.9248461
  66.2480146  45.8932401  24.4555470  65.6125979  45.9667028  25.1676374
  65.9177552  46.4826000  23.7774549  71.4778496  40.3934784  30.6599791
  72.2103668  39.8234001  30.8937621  70.7217851  40.0056384  31.1006297
  60.7523075  43.3551878  24.1516444  60.6359333  42.6796782  24.8197529
  60.8625334  42.8684252  23.3348597  63.0954615  42.8162025  27.8563134
  62.7312823  42.2892646  28.5676055  63.9521731  42.4260494  27.6829619
  69.0003916  34.1056358  35.1194400  68.6687241  34.9751769  34.8955615
  68.4049529  33.7892642  35.7988430  62.7360102  37.8451925  22.8524482
  62.9034505  38.7132162  23.2194953  62.5457272  38.0079207  21.9285771
  65.4935436  46.3068904  34.5190313  65.1936159  47.2093943  34.4106120
  65.1486495  46.0401087  35.3711465  58.9447917  42.7582701  30.5527017
  58.0198414  42.6258915  30.7604709  59.1932330  43.5376920  31.0496959
  68.8932579  38.8251444  32.1987750  67.9849457  38.7566853  31.9046511
  68.8420175  39.3023389  33.0269575  62.7149323  40.3009583  23.8371149
  62.5948949  40.7466633  24.6756629  62.0201912  40.6494900  23.2784687
  56.3056728  42.4015974  31.3870806  56.4349109  42.6550453  32.3010218
  55.6254179  42.9943682  31.0675461  60.4756215  53.0713224  27.4861280
  60.3980245  54.0221049  27.5649761  59.8717859  52.7259097  28.1436207
  62.9673445  40.2441090  40.1422647  62.1906779  40.8035010  40.1325512
  63.6064008  40.7297873  40.6637517  70.7594226  37.0267883  33.9765624
  70.1168606  37.3200416  33.3305418  70.2549154  36.9120803  34.7818820
  68.4134389  40.7731056  24.6651483  69.3252246  41.0058443  24.4899181
  67.9044037  41.3568100  24.1026562  61.2219818  43.0526543  39.7040614
  61.9634502  43.5911587  39.4275438  60.5156803  43.6792832  39.8612166
  63.0506227  40.1328290  35.6746333  63.8967422  40.5567704  35.8180982
  62.9904865  39.4761915  36.3684896  67.0203972  45.7556874  32.0565065
  66.3912834  45.9202588  31.3541132  66.6329634  46.1698484  32.8276029
  70.8993204  46.6911312  29.4109428  70.2144242  47.0710213  28.8606462
  70.9837053  47.3006639  30.1441376  66.2005673  37.7932659  37.3327506
  65.9566604  38.5474719  36.7961782  66.4765603  38.1718006  38.1674753
  68.1544135  44.3371271  36.0104772  68.3661031  44.9803031  35.3339153
  68.1073884  43.5033588  35.5426702  65.7570364  36.9489092  32.9141344
  64.8954843  37.2470345  33.2058082  65.7832799  37.1659491  31.9822377
  62.5731934  45.4931282  29.3215150  63.0370279  45.7718985  28.5319772
  62.3088732  44.5914727  29.1388240  59.4656015  45.0402764  32.2594913
  60.0357372  45.4690032  31.6212397  60.0564127  44.7585349  32.9579099
  61.5100820  41.6154435  26.1304715  62.2124863  42.0675478  26.5978641
  61.1781448  40.9738254  26.7584608  59.9581181  40.2066191  40.5055924
  59.3279842  40.8882472  40.7391321  59.8517269  40.0949273  39.5609062
  55.2526154  39.8737987  31.4321848  54.4625208  40.1295516  30.9561959
  55.7437401  40.6886325  31.5373889  69.2689963  47.2143227  34.1827129
  70.0907407  46.8123414  33.9009811  69.2652366  47.1111461  35.1343245
  57.2040899  40.2382567  28.3905325  56.4072062  40.3501261  28.9088821
  56.9766491  40.5769219  27.5246216  63.0346567  46.7627270  36.3387840
  63.0990999  47.2247677  37.1746011  62.3257491  46.1324635  36.4670149
  53.5363857  40.1268478  33.8636839  53.7871895  41.0115488  34.1294415
  54.0723405  39.9473079  33.0911931  77.3595956  43.5581975  30.5312101
  76.6059665  42.9889373  30.3756105  77.4943498  43.5244640  31.4782735
  62.7494584  48.4295377  26.2066820  62.6140259  49.2746913  26.6351668
  63.2904397  48.6314655  25.4432754  59.2361924  34.5086957  42.8681175
  58.8428870  33.9553156  43.5428819  60.0528064  34.8197536  43.2587693
  56.2023982  45.9470815  26.7794745  56.7148502  46.7414066  26.9300310
  56.8546695  45.2497106  26.7128347  62.1529885  35.9244836  40.4601432
  62.8939598  36.5251989  40.3805894  62.3847808  35.1822474  39.9019474
  57.2971223  41.1101204  38.7379661  57.1824738  40.2086461  39.0386760
  56.4415741  41.3564900  38.3864478  66.0987048  31.9525939  34.7365713
  65.7551317  32.8427581  34.6604824  66.4666011  31.7627597  33.8735298
  54.1672899  44.2759470  27.5554316  55.0048121  44.6856478  27.3388023
  54.3451166  43.3358912  27.5254509  66.0637331  41.9434550  23.2438149
  65.5483954  42.7139155  23.4826536  65.7914639  41.2699686  23.8671210
  63.6484442  36.7884251  28.3023387  62.7926038  36.3991101  28.1229026
  64.0611393  36.8676212  27.4423172  65.1783588  34.3230594  32.7014947
  64.6748384  34.2860730  31.8882752  65.4714195  35.2323337  32.7611603
  61.4226474  34.4069324  31.7081128  62.2879471  34.2112133  31.3487018
  61.4903983  34.1779676  32.6350485  71.0371605  44.6966905  25.1791322
  70.2601048  44.3578064  24.7346484  71.7163086  44.7019528  24.5046287
  65.8523634  39.8161642  25.0697930  65.5473769  40.1307792  25.9208073
  66.8054076  39.8943062  25.1125263  64.2970066  45.9751866  26.7190884
  63.7691427  45.2404625  26.4064121  63.7957568  46.7526542  26.4730852
  69.2762912  44.1700886  31.8357930  68.6186586  44.8600148  31.9238059
  70.0803311  44.5597318  32.1791916  59.0288793  36.6371532  29.0797495
  59.6032545  36.4146714  28.3470688  59.6159776  36.7060227  29.8326097
  68.0868370  42.5245259  29.8861872  68.6000252  43.1575251  30.3883581
  68.7369594  41.9246454  29.5205232  59.3558380  38.6675993  23.0993380
  58.5195693  39.0050680  23.4202655  59.2163150  38.5324973  22.1620517
  61.3311461  33.5112781  27.8072565  60.6775873  33.1961798  27.1829179
  61.2891935  32.8888521  28.5332388  62.4422666  43.7932076  19.7225857
  61.5349728  43.5621329  19.9217006  62.9393698  42.9969695  19.9099838
  65.3490745  52.5029583  22.6422543  64.6752443  52.8061280  23.2507501
  65.7356567  53.3058664  22.2928000  64.5649201  39.9994714  32.1320212
  63.6471763  40.2209661  31.9741900  64.9809345  40.0741025  31.2731920
  65.3484249  41.3986130  27.2622893  66.0956068  41.9107527  26.9530015
  65.6175839  41.0770183  28.1227286  63.6210899  43.8944671  24.2449847
  62.7122119  43.6103704  24.3422317  63.6505983  44.3143749  23.3853154
  68.8530167  47.5051260  28.0141014  68.3992494  46.6642170  28.0706205
  68.2224133  48.1412659  28.3515795  67.7963086  38.4343246  29.2441682
  67.0585843  37.9220633  29.5751924  68.0489860  37.9943628  28.4324959
  67.8974714  31.2119498  29.8383451  68.2033590  30.3516862  29.5509366
  68.6227318  31.8037119  29.6382445  54.1899070  41.6150185  28.2265049
  53.9923469  41.0219546  27.5016116  53.6345734  41.3102395  28.9440988
  62.1695793  41.5073291  30.3459642  62.2244403  40.5547128  30.2702119
  61.3586995  41.6632731  30.8300941  63.3186987  45.4353415  21.5837925
  62.8806417  44.7189273  21.1243563  64.0597428  45.6629529  21.0223017
  60.1088153  40.1250351  28.1050021  59.2956019  40.4244522  28.5115213
  60.6047147  39.7306040  28.8224503  62.2596731  50.1208108  30.0384286
  62.2172910  50.3468954  29.1092818  63.1759430  49.8871483  30.1870087
  65.7062365  40.5892176  36.9364915  66.0611753  40.8163649  37.7959381
  66.3534496  40.9210552  36.3142170  71.4360102  43.7110612  27.6414244
  71.2978000  43.9012208  26.7135433  71.0796321  44.4729994  28.0982295
  59.6002228  37.6968707  33.7211256  60.2401607  37.5557466  33.0234219
  58.7679759  37.4103220  33.3449858  71.4629481  45.7787139  32.6525515
  71.8965988  45.6862428  33.5008570  72.1761062  45.7544639  32.0145531
  60.3762532  46.9971137  29.8346248  61.1703130  46.5021457  29.6328823
  59.6654224  46.4689000  29.4713954  56.6845295  41.1414219  25.9106001
  55.7542883  41.0798674  26.1275963  56.7802767  40.6190172  25.1142642
  56.6030844  37.6669032  28.4984243  56.8637662  38.5814365  28.3893403
  57.4248017  37.1993474  28.6480856  58.0755770  39.0806789  35.6683067
  58.7478823  38.8724151  35.0195716  57.2485556  38.8828875  35.2288300
  72.3245031  45.8210839  35.1858401  72.5180921  46.7256650  35.4317676
  72.2245649  45.3618258  36.0196986  63.9781342  35.7068730  37.6848728
  63.3309257  36.4058679  37.5913205  64.7482357  36.1404874  38.0524976
  64.1545476  43.5449495  35.7445548  65.0837536  43.6960654  35.5714515
  63.7336506  43.6333516  34.8894194  63.5481960  52.6709256  24.8569622
  63.7233716  52.1997299  25.6715245  62.8614748  53.2975022  25.0850883
  64.5039023  46.9481762  30.9032923  64.1688856  46.9082532  31.7990573
  64.0042969  46.2826478  30.4303334  58.4783267  42.3549392  36.4285504
  58.3403065  41.6229631  37.0297044  59.3888190  42.2658292  36.1469692
  67.4398215  44.2937796  21.1769983  66.8227385  43.5684624  21.0803036
  66.9714703  45.0547156  20.8337057  61.1065568  42.0669351  35.9169184
  61.8165186  41.4262543  35.8755803  61.0634876  42.3182246  36.8395365
  59.8194502  39.0534569  37.7364824  59.2831859  38.6025308  38.3886420
  59.2311210  39.1880478  36.9935288  59.2296761  38.5123220  20.2991287
  58.3526227  38.3912021  19.9353534  59.7054514  37.7209299  20.0470176
  50.7498901  43.3000380  30.3932794  51.4369941  42.9862110  29.8053810
  50.5947029  44.2041745  30.1200046  55.5533623  38.1890577  34.8217818
  55.4691812  37.5816246  34.0868228  54.7316329  38.6799595  34.8227314
  62.4160687  50.8649511  27.5453808  61.6328209  51.4071191  27.6392032
  63.1153432  51.3823490  27.9448049  65.7257337  36.6744140  30.1888013
  66.2226036  35.9214103  29.8689083  64.9544318  36.7108457  29.6231222
  73.5787094  42.3784506  31.8306305  73.5676970  43.2609221  31.4600238
  72.7104474  42.0256057  31.6360842  66.8087117  45.4315828  27.7626437
  65.8743396  45.5517290  27.5931141  66.9863786  44.5288294  27.4986446
  62.3092306  38.8161523  29.9159698  61.9390093  38.2632564  30.6040603
  62.8051398  38.2119657  29.3634698  70.1959669  41.2733147  28.2976471
  70.6620121  42.1061138  28.2236773  70.6467169  40.8078128  29.0021729
  68.2635900  47.6176968  25.2962623  68.5395744  47.5033563  26.2056497
  67.3940399  47.2194453  25.2574796  68.1676332  33.6413734  32.3367372
  67.2539411  33.8717961  32.5049579  68.5969433  33.7252178  33.1881404
  67.9382790  41.8303626  34.8367266  67.2854240  42.0779533  34.1819719
  68.3163170  41.0167764  34.5029743  63.9870363  42.5723437  41.3233303
  63.3111000  42.4717566  41.9935678  64.8097997  42.4162651  41.7869300
  55.7349222  48.8095373  33.9445818  56.3202659  48.0639061  34.0773723
  55.5374061  49.1199330  34.8282482  50.3266877  41.3800974  32.6650262
  50.3650976  40.8464564  33.4587380  49.8207170  40.8536179  32.0461239
  57.7057639  36.2265514  36.1612804  57.7698966  37.0880345  35.7490202
  57.6424759  35.6139516  35.4285162  57.1809912  38.2988647  39.8085838
  57.8081951  37.9165724  40.4223362  56.3237831  38.0802849  40.1741531
  53.9575454  40.1065076  25.7404193  54.2528896  39.1975754  25.6871247
  53.0563490  40.0852815  25.4185195  57.4869701  38.1821072  31.7231742
  56.7656287  38.7957040  31.5839215  58.2762957  38.7178837  31.6448387
  60.2896015  35.5175499  37.9972393  60.8130417  35.7637795  38.7598703
  60.0708348  36.3495534  37.5775531  55.6863296  37.7879173  25.8643518
  55.3576002  36.9076552  25.6818624  56.0402667  37.7326842  26.7519907
  58.8005119  38.0752143  26.2318996  59.1401192  38.6038064  25.5097604
  59.2477240  38.4132549  27.0077562  61.4948560  36.4589194  35.6822064
  61.1545380  35.6597007  36.0842744  60.7887566  36.7590905  35.1098897
  62.1465032  33.5438506  34.1349387  62.9691101  33.0698985  34.0128277
  62.3903095  34.3228990  34.6348073  60.7873266  36.5726765  24.4312289
  61.5081629  36.9508018  23.9276005  60.1638570  37.2915642  24.5347266
  64.9304389  37.2771914  25.3670621  65.1468004  38.1596552  25.0659449
  64.4498456  36.8858127  24.6376263  59.6703611  40.2357627  31.9441365
  59.5248191  40.5497930  32.8365647  59.1928814  40.8542527  31.3912264
  61.5299993  37.2260175  31.9922255  61.5161562  36.3301268  31.6554553
  62.2472422  37.2330839  32.6260541  63.3826124  37.6597515  34.0375382
  63.1243902  38.5814586  34.0359713  62.8511165  37.2627950  34.7275847
  54.1449273  42.7762971  34.8829027  53.6002741  43.5522779  35.0149301
  55.0228623  43.1233776  34.7248148  60.9336889  36.1074555  27.2609825
  61.0552801  35.1791201  27.4600713  60.6438932  36.1213241  26.3488141
  63.8028080  33.7929466  30.3976545  63.8249777  33.8568799  29.4428525
  64.2196139  32.9533974  30.5917051  74.1811704  43.5284725  28.4355768
  74.6242850  42.7792050  28.0374891  73.3038214  43.5194862  28.0529500
  69.3147485  50.0815067  23.9162366  70.0098390  50.7021759  24.1349681
  69.6570636  49.2310418  24.1914744  54.9315295  41.9032868  37.7759183
  54.1897031  42.0515503  38.3623814  54.6108039  42.1641133  36.9125933
  71.2138909  47.5314772  25.4449697  71.7390233  47.8702045  24.7199017
  71.1261261  46.5961788  25.2612831  53.5780513  47.7084623  30.7658512
  52.7412422  47.2806797  30.5842513  53.5504159  47.9017066  31.7029303
  60.4177969  37.6206553  41.4699758  60.4666124  38.4968675  41.0877527
  60.9600483  37.0783946  40.8971401  71.0230690  45.0140142  38.0633623
  71.0728695  44.8490150  39.0049146  70.9144613  44.1467401  37.6731504
  59.9066948  47.6928688  25.3525712  60.0555069  48.3764152  24.6992385
  60.7133392  47.6733778  25.8675168  68.3134452  40.9971070  39.3792930
  69.2144315  40.8577535  39.0876928  68.3882427  41.1625525  40.3191108
  62.6477257  38.3737925  38.2246116  61.7780567  38.6671491  37.9528705
  62.8836738  38.9578370  38.9453380  73.7244569  44.9989964  30.8278215
  74.5591460  45.4379768  30.9915775  73.8603698  44.5228617  30.0086461
  70.7736075  42.5569698  36.7755703  71.2490196  42.7497345  35.9674554
  69.8501640  42.6128884  36.5299087  57.6619581  43.7193866  26.3586781
  57.4165623  42.8156196  26.5566991  57.8315496  43.7211016  25.4166259
  65.3516291  34.5917542  35.7411537  65.8698235  35.3278569  35.4158025
  64.9971424  34.8981535  36.5758296  56.9315229  39.4522223  23.8572943
  56.2384474  39.5266578  23.2012979  56.6866981  38.6882567  24.3794460
  65.6028885  31.0117824  31.2612433  65.8830639  30.3441014  31.8872860
  66.3879492  31.2046920  30.7487097  63.4062354  50.1876818  22.8237460
  62.8336321  50.8067006  22.3707932  63.9795148  50.7376180  23.3577382
  69.4737744  39.4335458  35.0084008  70.4255167  39.5333556  35.0296233
  69.3041194  38.6413727  35.5182093  67.4952123  36.5191042  35.1943409
  66.9002055  36.7996054  34.4989898  67.2101820  37.0084943  35.9660151
  66.6259614  50.4713969  23.9546042  67.5590287  50.4059530  24.1578917
  66.5382827  51.3070235  23.4960575  69.2547630  49.7879839  20.9149990
  69.1761262  49.4539702  21.8085747  70.0757297  50.2801607  20.9141462
  71.9525822  42.6541578  34.1226308  71.9202142  41.7157579  34.3085992
  72.5626445  42.7325615  33.3892133  63.7909152  41.5237631  20.1653512
  64.7368257  41.3943839  20.2341930  63.4123397  40.7852293  20.6422940
  72.1020310  39.4452622  34.1684591  71.5859359  38.6611078  33.9814520
  72.9860259  39.1171338  34.3331111  69.7631037  33.1893637  30.1280404
  69.5655858  32.8808725  31.0123736  70.3730743  33.9155276  30.2578334
  77.7702371  43.7157585  33.2632345  78.5005760  43.4542873  33.8240048
  77.1609317  42.9786307  33.3034413  75.8517669  41.8565448  33.8606796
  75.1250832  41.7221413  33.2523288  75.4364955  42.1642276  34.6663514
  63.6747845  45.5755377  41.6254169  64.5950854  45.7533976  41.8194216
  63.6397428  44.6311423  41.4733868  61.9752070  39.4487608  20.1008397
  61.0683525  39.1520720  20.1771111  62.2528051  39.1517426  19.2342684
  52.8930010  40.7693971  30.5507444  52.5732794  39.9159279  30.2581818
  52.3463438  40.9842549  31.3065411  56.6709917  43.4856412  34.2676950
  56.8895927  44.4173520  34.2864984  57.0835691  43.1264386  35.0531754
  63.5914135  33.9924497  26.2552639  62.7814864  33.6471582  26.6307885
  64.2798552  33.6832041  26.8440250  65.5204684  33.0702544  27.8776935
  66.0735722  33.4897997  28.5366958  65.7574770  32.1438292  27.9199891
  61.5437783  39.0589618  43.6579699  61.4434510  40.0083975  43.5891790
  61.3259325  38.7307857  42.7855769  60.7450854  36.3074543  20.2420377
  61.6070018  36.6329441  20.5016194  60.9301198  35.5206039  19.7293442
  52.7618270  44.3896882  32.5200565  52.0681741  43.9750835  32.0070520
  53.5091261  44.4317419  31.9233984  68.8983491  35.1803069  27.3855600
  68.3182160  35.8387873  27.0033652  68.6319423  34.3580414  26.9743017
  67.3487057  34.5808127  29.5876920  67.8486835  34.6924661  28.7791239
  67.9922665  34.2769180  30.2277728  54.6755012  44.3215136  30.3966580
  54.6525701  44.4202823  29.4448463  54.9855649  45.1680287  30.7183746
  57.3342390  46.3791291  34.5113195  58.2885644  46.3475234  34.4443126
  57.1354914  45.9181915  35.3263421  57.9241772  44.9492407  37.0783992
  58.7434661  45.4436486  37.1018830  58.1978580  44.0324375  37.0501560
  67.6808369  37.3403160  26.4411948  66.7934224  37.6252810  26.2232143
  68.0962358  37.1796923  25.5939225  71.0322905  37.3649681  30.1566287
  71.8083295  37.8546133  30.4290904  70.3071039  37.7907735  30.6138157
  73.4695463  38.0777300  31.2140228  74.0639954  37.8373036  30.5033536
  73.5422047  37.3584430  31.8413764  66.8251582  47.1047834  20.5359968
  67.5287432  47.3097837  21.1517623  66.1014231  47.6724596  20.8009051
  67.6549392  42.8557696  26.6562238  67.5984594  43.3126247  25.8169870
  68.2077735  42.0948380  26.4785081  71.4654198  38.6447427  27.4812358
  71.2091133  38.2444063  28.3120565  70.8407066  39.3591221  27.3562497
  75.7766536  41.3843501  29.9883649  75.2166094  41.4536690  30.7615211
  75.1710040  41.2084485  29.2683145  68.7338280  47.5430363  22.5858428
  69.5683883  47.1111562  22.4035903  68.5722622  47.3712377  23.5135322
  68.3884172  44.0462477  23.9514767  68.3332976  43.8806748  23.0103211
  67.7630227  44.7538510  24.1076957  53.1776687  39.2830541  37.7776189
  53.8235550  38.7729495  38.2663415  52.9693838  40.0199223  38.3519615
  65.7030079  46.3511389  43.2768330  66.5721239  46.5252041  42.9154965
  65.2236830  47.1705805  43.1544059  61.6980297  33.5470586  23.5300086
  61.6858967  34.4912426  23.6868356  62.5903719  33.3640731  23.2359547
  65.5132417  30.1413362  27.7846022  64.7464812  29.5871849  27.9302705
  65.9243122  30.2135231  28.6460174  57.5174178  36.4298158  41.8751204
  58.3805639  36.0734963  42.0854528  56.9439588  36.0912053  42.5626608
  77.3622555  58.0600015  32.6813605  78.0000965  57.9406762  31.9776945
  77.2443398  59.0080859  32.7401557  74.1712261  58.0127443  32.6175129
  73.8330772  57.8968507  31.7295664  75.0402029  57.6118608  32.5976135
  74.6532044  59.1662294  38.5761335  74.6420685  58.7715093  37.7041839
  74.8152683  58.4328367  39.1695106  75.6098635  63.5333887  23.9186485
  74.9586615  64.1187967  23.5320499  76.4042998  64.0640082  23.9781523
  69.5354262  60.6223024  24.3173620  70.3085138  60.0752011  24.1786495
  69.8879661  61.4867273  24.5288081  71.3739305  61.9499406  37.5240519
  71.0829171  62.8545037  37.4087185  72.0096289  61.9915934  38.2384588
  72.2995512  59.3276255  34.1141879  72.8959084  59.1032277  33.3998841
  72.3570483  58.5861000  34.7167326  71.8720540  56.7815690  21.9492069
  72.1246061  56.2597211  21.1875532  70.9345099  56.6181835  22.0518753
  76.9163823  55.7851468  29.7566813  77.7026912  55.3670892  29.4057230
  77.1802527  56.6897561  29.9248461  77.0873900  61.2224319  24.4555470
  76.4519733  61.2958945  25.1676374  76.7571307  61.8117918  23.7774549
  82.3172250  55.7226702  30.6599791  83.0497422  55.1525918  30.8937621
  81.5611606  55.3348302  31.1006297  71.5916829  58.6843796  24.1516444
  71.4753087  58.0088699  24.8197529  71.7019089  58.1976170  23.3348597
  73.9348370  58.1453943  27.8563134  73.5706577  57.6184564  28.5676055
  74.7915486  57.7552412  27.6829619  79.8397671  49.4348276  35.1194400
  79.5080995  50.3043687  34.8955615  79.2443284  49.1184560  35.7988430
  73.5753857  53.1743843  22.8524482  73.7428259  54.0424079  23.2194953
  73.3851026  53.3371124  21.9285771  76.3329190  61.6360822  34.5190313
  76.0329913  62.5385861  34.4106120  75.9880250  61.3693005  35.3711465
  79.7326334  54.1543362  32.1987750  78.8243211  54.0858770  31.9046511
  79.6813930  54.6315307  33.0269575  73.5543078  55.6301500  23.8371149
  73.4342703  56.0758551  24.6756629  72.8595666  55.9786818  23.2784687
  71.3149970  68.4005142  27.4861280  71.2374000  69.3512967  27.5649761
  70.7111614  68.0551015  28.1436207  81.5987980  52.3559800  33.9765624
  80.9562361  52.6492333  33.3305418  81.0942909  52.2412721  34.7818820
  79.2528144  56.1022973  24.6651483  80.1646000  56.3350360  24.4899181
  78.7437791  56.6860018  24.1026562  77.5368912  60.5247601  38.3012776
  77.9452268  60.0830012  37.5567408  76.8146173  59.9500229  38.5546969
  77.8597726  61.0848792  32.0565065  77.2306589  61.2494506  31.3541132
  77.4723388  61.4990401  32.8276029  81.7386958  62.0203230  29.4109428
  81.0537996  62.4002131  28.8606462  81.8230808  62.6298556  30.1441376
  78.9937890  59.6663189  36.0104772  79.2054785  60.3094949  35.3339153
  78.9467638  58.8325505  35.5426702  76.5964119  52.2781009  32.9141344
  75.7348598  52.5762263  33.2058082  76.6226553  52.4951408  31.9822377
  73.4125688  60.8223200  29.3215150  73.8764034  61.1010903  28.5319772
  73.1482486  59.9206645  29.1388240  70.3049769  60.3694682  32.2594913
  70.8751126  60.7981950  31.6212397  70.8957881  60.0877266  32.9579099
  72.3494574  56.9446352  26.1304715  73.0518618  57.3967396  26.5978641
  72.0175203  56.3030171  26.7584608  80.1083718  62.5435144  34.1827129
  80.9301161  62.1415331  33.9009811  80.1046121  62.4403378  35.1343245
  73.8740321  62.0919188  36.3387840  73.9384754  62.5539595  37.1746011
  73.1651245  61.4616552  36.4670149  88.1989711  58.8873893  30.5312101
  87.4453419  58.3181291  30.3756105  88.3337252  58.8536557  31.4782735
  73.5888339  63.7587295  26.2066820  73.4534014  64.6038831  26.6351668
  74.1298151  63.9606573  25.4432754  67.0417736  61.2762733  26.7794745
  67.5542257  62.0705983  26.9300310  67.6940449  60.5789023  26.7128347
  75.2156815  64.3810862  40.3367162  74.7720669  63.5947240  40.0188067
  75.8774029  64.5690012  39.6711053  77.3138053  64.6613661  38.3648563
  77.2956529  65.4822542  37.8728832  78.2357973  64.5367737  38.5898704
  73.7711107  62.1757791  39.2072072  74.3039444  61.4146079  38.9771380
  73.2425189  61.8831443  39.9496226  76.9380802  47.2817857  34.7365713
  76.5945072  48.1719499  34.6604824  77.3059765  47.0919515  33.8735298
  76.9031085  57.2726468  23.2438149  76.3877709  58.0431073  23.4826536
  76.6308394  56.5991604  23.8671210  74.4878196  52.1176169  28.3023387
  73.6319793  51.7283019  28.1229026  74.9005148  52.1968130  27.4423172
  76.0177343  49.6522512  32.7014947  75.5142138  49.6152647  31.8882752
  76.3107950  50.5615255  32.7611603  72.2620229  49.7361242  31.7081128
  73.1273225  49.5404050  31.3487018  72.3297738  49.5071594  32.6350485
  81.8765359  60.0258823  25.1791322  81.0994802  59.6869982  24.7346484
  82.5556840  60.0311446  24.5046287  76.6917388  55.1453560  25.0697930
  76.3867524  55.4599709  25.9208073  77.6447830  55.2234980  25.1125263
  75.1363820  61.3043783  26.7190884  74.6085182  60.5696543  26.4064121
  74.6351323  62.0818460  26.4730852  80.1156666  59.4992804  31.8357930
  79.4580341  60.1892065  31.9238059  80.9197065  59.8889236  32.1791916
  78.9262125  57.8537177  29.8861872  79.4394007  58.4867168  30.3883581
  79.5763349  57.2538372  29.5205232  70.1952135  53.9967911  23.0993380
  69.3589447  54.3342597  23.4202655  70.0556905  53.8616891  22.1620517
  72.1705215  48.8404699  27.8072565  71.5169628  48.5253716  27.1829179
  72.1285690  48.2180439  28.5332388  73.2816420  59.1223994  19.7225857
  72.3743482  58.8913247  19.9217006  73.7787452  58.3261613  19.9099838
  76.1884499  67.8321501  22.6422543  75.5146198  68.1353198  23.2507501
  76.5750321  68.6350581  22.2928000  75.4042956  55.3286632  32.1320212
  74.4865517  55.5501579  31.9741900  75.8203099  55.4032943  31.2731920
  76.1878004  56.7278048  27.2622893  76.9349823  57.2399445  26.9530015
  76.4569593  56.4062101  28.1227286  74.4604654  59.2236589  24.2449847
  73.5515873  58.9395621  24.3422317  74.4899738  59.6435667  23.3853154
  79.6923921  62.8343178  28.0141014  79.2386248  61.9934088  28.0706205
  79.0617888  63.4704576  28.3515795  78.6356841  53.7635164  29.2441682
  77.8979598  53.2512550  29.5751924  78.8883614  53.3235546  28.4324959
  78.1356860  64.6719675  28.9490833  78.4279835  65.2324732  28.2303198
  78.6455481  64.9648236  29.7043992  78.7368468  46.5411416  29.8383451
  79.0427345  45.6808780  29.5509366  79.4621073  47.1329036  29.6382445
  73.0089548  56.8365209  30.3459642  73.0638158  55.8839046  30.2702119
  72.1980750  56.9924648  30.8300941  74.1580742  60.7645332  21.5837925
  73.7200172  60.0481191  21.1243563  74.8991182  60.9921447  21.0223017
  73.0990486  65.4500026  30.0384286  73.0566664  65.6760872  29.1092818
  74.0153184  65.2163400  30.1870087  82.2753856  59.0402529  27.6414244
  82.1371755  59.2304125  26.7135433  81.9190075  59.8021912  28.0982295
  70.4395982  53.0260624  33.7211256  71.0795362  52.8849384  33.0234219
  69.6073513  52.7395138  33.3449858  82.3023236  61.1079056  32.6525515
  82.7359743  61.0154345  33.5008570  83.0154817  61.0836557  32.0145531
  71.2156286  62.3263055  29.8346248  72.0096885  61.8313375  29.6328823
  70.5047979  61.7980918  29.4713954  76.0351131  64.7081150  34.1858616
  76.0888153  65.2772087  34.9536332  75.1665912  64.8783035  33.8212653
  83.1638786  61.1502757  35.1858401  83.3574676  62.0548567  35.4317676
  83.0639404  60.6910176  36.0196986  78.2253894  61.3009500  40.7599281
  78.0739401  61.0720051  39.8429365  78.2158574  62.2580101  40.7730626
  74.9939231  58.8741412  35.7445548  75.9231291  59.0252572  35.5714515
  74.5730261  58.9625433  34.8894194  73.7927562  62.8992077  33.5144086
  73.6538648  62.5310861  34.3870024  73.0042159  63.4139716  33.3428043
  74.3875714  68.0001173  24.8569622  74.5627470  67.5289216  25.6715245
  73.7008502  68.6266939  25.0850883  75.3432778  62.2773680  30.9032923
  75.0082610  62.2374449  31.7990573  74.8436723  61.6118395  30.4303334
  78.2791969  59.6229714  21.1769983  77.6621140  58.8976542  21.0803036
  77.8108458  60.3839074  20.8337057  79.9346101  64.3328622  38.8375763
  79.8758647  63.6487842  38.1706346  80.3365619  65.0747612  38.3856389
  68.9536800  71.1490536  31.6309482  69.1933398  71.7809060  32.3088501
  68.1105996  70.7978576  31.9174842  70.0690515  53.8415138  20.2991287
  69.1919981  53.7203939  19.9353534  70.5448268  53.0501216  20.0470176
  79.9363508  62.2968206  37.0689743  79.0490287  61.9594128  37.1916142
  80.5062059  61.5651237  37.3058508  73.4664662  66.9569658  34.0350986
  73.3934833  67.7624630  34.5470291  73.0242055  67.1561624  33.2099008
  73.2554441  66.1941429  27.5453808  72.4721963  66.7363109  27.6392032
  73.9547186  66.7115408  27.9448049  76.5651091  52.0036058  30.1888013
  77.0619791  51.2506020  29.8689083  75.7938073  52.0400375  29.6231222
  84.4180849  57.7076424  31.8306305  84.4070725  58.5901139  31.4600238
  83.5498228  57.3547974  31.6360842  75.9263345  66.8556493  36.1909145
  76.6391317  67.4903957  36.1185046  75.4353374  66.9520359  35.3749147
  77.6480872  60.7607745  27.7626437  76.7137151  60.8809208  27.5931141
  77.8257540  59.8580212  27.4986446  73.1486060  54.1453441  29.9159698
  72.7783848  53.5924481  30.6040603  73.6445152  53.5411574  29.3634698
  81.0353423  56.6025064  28.2976471  81.5013875  57.4353056  28.2236773
  81.4860924  56.1370046  29.0021729  79.1029654  62.9468886  25.2962623
  79.3789498  62.8325480  26.2056497  78.2334153  62.5486371  25.2574796
  79.0070086  48.9705651  32.3367372  78.0933166  49.2009878  32.5049579
  79.4363187  49.0544096  33.1881404  78.7776545  57.1595543  34.8367266
  78.1247995  57.4071451  34.1819719  79.1556924  56.3459682  34.5029743
  75.7383718  67.1955237  28.9395436  75.9206113  66.3776893  29.4023189
  76.5616704  67.4122929  28.5020326  76.0725884  66.1223422  26.2010485
  76.6013650  65.6115876  25.5880647  76.3354103  65.8065952  27.0656018
  74.8264118  57.9015354  41.3233303  74.1504755  57.8009484  41.9935678
  75.6491751  57.7454568  41.7869300  73.5686900  69.2082282  35.5590919
  74.1205208  69.3713903  36.3240004  73.9093094  69.7986720  34.8870944
  78.4197775  64.0343539  41.4139574  78.9637679  64.6473498  40.9194528
  77.8384620  64.5923118  41.9306587  76.7055288  67.1564257  32.5454601
  76.5806427  66.3553997  32.0365547  77.3634379  67.6510451  32.0568571
  78.7690196  64.9573278  34.1734151  77.8220532  64.8378629  34.1012478
  79.1172969  64.0695776  34.2560413  75.7736629  64.7525994  30.3738504
  75.6261592  63.8242701  30.5546074  76.5990123  64.7746084  29.8895579
  79.3770751  65.5754552  31.4603376  80.3017299  65.3697414  31.3227828
  79.2086055  65.3270954  32.3692718  72.9858786  48.8730424  34.1349387
  73.8084856  48.3990902  34.0128277  73.2296850  49.6520908  34.6348073
  71.6267021  51.9018682  24.4312289  72.3475383  52.2799935  23.9276005
  71.0032325  52.6207559  24.5347266  75.7698144  52.6063831  25.3670621
  75.9861758  53.4888469  25.0659449  75.2892211  52.2150045  24.6376263
  72.3693748  52.5552093  31.9922255  72.3555317  51.6593186  31.6554553
  73.0866176  52.5622756  32.6260541  74.2219879  52.9889433  34.0375382
  73.9637657  53.9106503  34.0359713  73.6904919  52.5919867  34.7275847
  79.1666067  66.0940220  26.8165468  79.3402945  65.5286642  26.0639320
  79.6594959  66.8941115  26.6344958  71.7730644  51.4366473  27.2609825
  71.8946555  50.5083119  27.4600713  71.4832686  51.4505159  26.3488141
  74.6421834  49.1221383  30.3976545  74.6643531  49.1860716  29.4428525
  75.0589893  48.2825892  30.5917051  85.0205459  58.8576643  28.4355768
  85.4636605  58.1083968  28.0374891  84.1431969  58.8486779  28.0529500
  80.1541240  65.4106984  23.9162366  80.8492145  66.0313677  24.1349681
  80.4964390  64.5602336  24.1914744  82.0532663  62.8606690  25.4449697
  82.5783987  63.1993963  24.7199017  81.9655016  61.9253705  25.2612831
  73.7152712  66.7740764  37.5739573  74.0239838  66.5289910  38.4462273
  74.5128194  66.9787402  37.0858444  73.7373324  68.9278673  29.8044950
  73.2978314  68.4355052  30.4977807  74.4881441  68.3851641  29.5637025
  71.1847196  64.4716682  31.8767252  70.5627205  63.8087387  31.5769480
  71.8552063  64.4977814  31.1940899  81.7426569  63.4939594  40.7500895
  80.9522113  63.4763732  40.2105394  81.5059924  64.0327887  41.5049931
  81.8624444  60.3432060  38.0633623  81.9122449  60.1782067  39.0049146
  81.7538368  59.4759319  37.6731504  70.7460703  63.0220606  25.3525712
  70.8948823  63.7056070  24.6992385  71.5527146  63.0025696  25.8675168
  79.1528207  56.3262988  39.3792930  80.0538069  56.1869453  39.0876928
  79.2276181  56.4917443  40.3191108  83.3642641  62.7629001  38.3075645
  83.0727449  63.1258982  39.1439106  82.7514772  62.0496010  38.1288977
  84.5638323  60.3281881  30.8278215  85.3985215  60.7671685  30.9915775
  84.6997452  59.8520534  30.0086461  81.6129829  57.8861616  36.7755703
  82.0883951  58.0789262  35.9674554  80.6895395  57.9420802  36.5299087
  76.1910046  49.9209460  35.7411537  76.7091990  50.6570487  35.4158025
  75.8365179  50.2273453  36.5758296  67.7708983  54.7814141  23.8572943
  67.0778228  54.8558496  23.2012979  67.5260735  54.0174484  24.3794460
  76.4422640  46.3409742  31.2612433  76.7224394  45.6732931  31.8872860
  77.2273247  46.5338838  30.7487097  74.2456108  65.5168736  22.8237460
  73.6730075  66.1358923  22.3707932  74.8188902  66.0668098  23.3577382
  80.3131498  54.7627376  35.0084008  81.2648921  54.8625474  35.0296233
  80.1434949  53.9705645  35.5182093  78.3345878  51.8482959  35.1943409
  77.7395810  52.1287972  34.4989898  78.0495574  52.3376860  35.9660151
  77.4653368  65.8005886  23.9546042  78.3984041  65.7351448  24.1578917
  77.3776581  66.6362153  23.4960575  80.0941385  65.1171757  20.9149990
  80.0155016  64.7831620  21.8085747  80.9151052  65.6093524  20.9141462
  82.7919576  57.9833496  34.1226308  82.7595896  57.0449497  34.3085992
  83.4020200  58.0617533  33.3892133  74.6302907  56.8529549  20.1653512
  75.5762012  56.7235757  20.2341930  74.2517152  56.1144211  20.6422940
  82.9414065  54.7744539  34.1684591  82.4253113  53.9902996  33.9814520
  83.8254013  54.4463256  34.3331111  80.6024791  48.5185555  30.1280404
  80.4049613  48.2100643  31.0123736  81.2124497  49.2447194  30.2578334
  88.6096126  59.0449503  33.2632345  89.3399514  58.7834791  33.8240048
  88.0003071  58.3078225  33.3034413  86.6911423  57.1857365  33.8606796
  85.9644587  57.0513330  33.2523288  86.2758710  57.4934194  34.6663514
  74.5141599  60.9047295  41.6254169  75.4344609  61.0825894  41.8194216
  74.4791182  59.9603340  41.4733868  72.8145824  54.7779525  20.1008397
  71.9077279  54.4812638  20.1771111  73.0921805  54.4809343  19.2342684
  74.4307890  49.3216415  26.2552639  73.6208618  48.9763500  26.6307885
  75.1192307  49.0123959  26.8440250  76.3598438  48.3994462  27.8776935
  76.9129477  48.8189915  28.5366958  76.5968524  47.4730210  27.9199891
  71.5844609  51.6366460  20.2420377  72.4463773  51.9621359  20.5016194
  71.7694953  50.8497956  19.7293442  79.7377245  50.5094987  27.3855600
  79.1575914  51.1679791  27.0033652  79.4713178  49.6872331  26.9743017
  78.1880812  49.9100045  29.5876920  78.6880590  50.0216579  28.7791239
  78.8316419  49.6061097  30.2277728  78.5202123  52.6695077  26.4411948
  77.6327978  52.9544728  26.2232143  78.9356112  52.5088841  25.5939225
  81.8716659  52.6941598  30.1566287  82.6477049  53.1838051  30.4290904
  81.1464793  53.1199652  30.6138157  84.3089218  53.4069217  31.2140228
  84.9033709  53.1664953  30.5033536  84.3815802  52.6876348  31.8413764
  77.6645337  62.4339752  20.5359968  78.3681187  62.6389754  21.1517623
  76.9407985  63.0016514  20.8009051  78.4943147  58.1849613  26.6562238
  78.4378348  58.6418165  25.8169870  79.0471489  57.4240298  26.4785081
  82.3047953  53.9739345  27.4812358  82.0484887  53.5735981  28.3120565
  81.6800821  54.6883139  27.3562497  86.6160291  56.7135418  29.9883649
  86.0559849  56.7828608  30.7615211  86.0103794  56.5376403  29.2683145
  69.6855499  68.1472145  31.7401835  69.5687884  69.0917578  31.6380525
  68.8647946  67.8445707  32.1287634  79.5732034  62.8722281  22.5858428
  80.4077638  62.4403480  22.4035903  79.4116377  62.7004295  23.5135322
  79.2277926  59.3754394  23.9514767  79.1726730  59.2098666  23.0103211
  78.6023981  60.0830427  24.1076957  76.5423833  61.6803306  43.2768330
  77.4114993  61.8543959  42.9154965  76.0630585  62.4997723  43.1544059
  72.5374052  48.8762503  23.5300086  72.5252722  49.8204343  23.6868356
  73.4297474  48.6932649  23.2359547  70.7110014  68.8000407  34.9557764
  71.6137260  68.8324018  35.2724259  70.4847384  67.8700858  34.9704099
  72.4663616  67.5531394  31.6167842  71.5159247  67.5533255  31.5032215
  72.7696102  66.8064128  31.1003877  76.3526171  45.4705280  27.7846022
  75.5858567  44.9163767  27.9302705  76.7636876  45.5427149  28.6460174
  88.2016309  73.3891932  32.6813605  88.8394719  73.2698680  31.9776945
  88.0837152  74.3372776  32.7401557  85.0106015  73.3419360  32.6175129
  84.6724527  73.2260425  31.7295664  85.8795784  72.9410525  32.5976135
  80.8692831  75.1954837  28.6072020  80.3057696  75.1044774  27.8388308
  80.7545226  74.3754741  29.0874513  85.4925798  74.4954212  38.5761335
  85.4814439  74.1007010  37.7041839  85.6546438  73.7620285  39.1695106
  78.4157263  76.6906028  31.4456241  79.2078555  76.3496853  31.0302540
  78.6553913  76.8001003  32.3658394  86.4492390  78.8625804  23.9186485
  85.7980370  79.4479885  23.5320499  87.2436753  79.3931999  23.9781523
  80.3748017  75.9514942  24.3173620  81.1478893  75.4043929  24.1786495
  80.7273416  76.8159191  24.5288081  82.2133060  77.2791324  37.5240519
  81.9222926  78.1836955  37.4087185  82.8490044  77.3207851  38.2384588
  83.1389266  74.6568172  34.1141879  83.7352839  74.4324195  33.3998841
  83.1964238  73.9152918  34.7167326  82.7114295  72.1107608  21.9492069
  82.9639815  71.5889129  21.1875532  81.7738854  71.9473753  22.0518753
  87.7557578  71.1143386  29.7566813  88.5420667  70.6962809  29.4057230
  88.0196282  72.0189478  29.9248461  87.9267655  76.5516236  24.4555470
  87.2913488  76.6250863  25.1676374  87.5965061  77.1409835  23.7774549
  93.1566005  71.0518619  30.6599791  93.8891177  70.4817836  30.8937621
  92.4005360  70.6640220  31.1006297  82.4310584  74.0135714  24.1516444
  82.3146842  73.3380617  24.8197529  82.5412843  73.5268088  23.3348597
  84.7742124  73.4745861  27.8563134  84.4100332  72.9476482  28.5676055
  85.6309240  73.0844330  27.6829619  90.6791425  64.7640193  35.1194400
  90.3474750  65.6335604  34.8955615  90.0837038  64.4476477  35.7988430
  84.4147611  68.5035760  22.8524482  84.5822014  69.3715997  23.2194953
  84.2244781  68.6663042  21.9285771  87.1722945  76.9652739  34.5190313
  86.8723668  77.8677778  34.4106120  86.8274004  76.6984923  35.3711465
  80.6235426  73.4166536  30.5527017  79.6985923  73.2842750  30.7604709
  80.8719839  74.1960755  31.0496959  90.5720088  69.4835280  32.1987750
  89.6636966  69.4150688  31.9046511  90.5207684  69.9607224  33.0269575
  84.3936832  70.9593418  23.8371149  84.2736458  71.4050469  24.6756629
  83.6989421  71.3078736  23.2784687  77.9844237  73.0599810  31.3870806
  78.1136618  73.3134289  32.3010218  77.3041688  73.6527518  31.0675461
  82.1543724  83.7297060  27.4861280  82.0767754  84.6804885  27.5649761
  81.5505368  83.3842932  28.1436207  84.6460954  70.9024925  40.1422647
  83.8694288  71.4618845  40.1325512  85.2851517  71.3881708  40.6637517
  92.4381735  67.6851718  33.9765624  91.7956115  67.9784251  33.3305418
  91.9336663  67.5704638  34.7818820  90.0921898  71.4314891  24.6651483
  91.0039755  71.6642278  24.4899181  89.5831546  72.0151935  24.1026562
  82.9007326  73.7110379  39.7040614  83.6422011  74.2495422  39.4275438
  82.1944312  74.3376667  39.8612166  88.3762666  75.8539519  38.3012776
  88.7846022  75.4121929  37.5567408  87.6539928  75.2792146  38.5546969
  84.7293736  70.7912126  35.6746333  85.5754931  71.2151539  35.8180982
  84.6692374  70.1345750  36.3684896  88.6991481  76.4140710  32.0565065
  88.0700343  76.5786424  31.3541132  88.3117143  76.8282319  32.8276029
  92.5780713  77.3495147  29.4109428  91.8931751  77.7294049  28.8606462
  92.6624562  77.9590474  30.1441376  87.8793182  68.4516494  37.3327506
  87.6354113  69.2058555  36.7961782  88.1553112  68.8301842  38.1674753
  89.8331644  74.9955106  36.0104772  90.0448540  75.6386866  35.3339153
  89.7861393  74.1617423  35.5426702  87.4357873  67.6072927  32.9141344
  86.5742352  67.9054181  33.2058082  87.4620308  67.8243326  31.9822377
  84.2519443  76.1515118  29.3215150  84.7157788  76.4302821  28.5319772
  83.9876241  75.2498562  29.1388240  81.1443524  75.6986599  32.2594913
  81.7144881  76.1273868  31.6212397  81.7351636  75.4169184  32.9579099
  83.1888329  72.2738270  26.1304715  83.8912372  72.7259314  26.5978641
  82.8568957  71.6322089  26.7584608  81.6368690  70.8650027  40.5055924
  81.0067351  71.5466308  40.7391321  81.5304778  70.7533108  39.5609062
  76.9313663  70.5321823  31.4321848  76.1412717  70.7879351  30.9561959
  77.4224910  71.3470161  31.5373889  90.9477472  77.8727062  34.1827129
  91.7694916  77.4707249  33.9009811  90.9439875  77.7695296  35.1343245
  78.8828408  70.8966402  28.3905325  78.0859571  71.0085096  28.9088821
  78.6554000  71.2353054  27.5246216  84.7134076  77.4211105  36.3387840
  84.7778508  77.8831512  37.1746011  84.0045000  76.7908470  36.4670149
  75.2151366  70.7852313  33.8636839  75.4659404  71.6699323  34.1294415
  75.7510914  70.6056915  33.0911931  99.0383465  74.2165810  30.5312101
  98.2847174  73.6473208  30.3756105  99.1731006  74.1828475  31.4782735
  84.4282093  79.0879213  26.2066820  84.2927768  79.9330748  26.6351668
  84.9691906  79.2898490  25.4432754  80.9149433  65.1670793  42.8681175
  80.5216379  64.6136991  43.5428819  81.7315573  65.4781371  43.2587693
  77.8811491  76.6054651  26.7794745  78.3936011  77.3997901  26.9300310
  78.5334204  75.9080941  26.7128347  79.6906375  79.7220407  28.8617498
  79.8673004  80.6438372  28.6738482  80.4863209  79.4078826  29.2911878
  83.8317394  66.5828672  40.4601432  84.5727107  67.1835825  40.3805894
  84.0635317  65.8406309  39.9019474  78.9758732  71.7685039  38.7379661
  78.8612247  70.8670296  39.0386760  78.1203250  72.0148736  38.3864478
  86.0550570  79.7102779  40.3367162  85.6114424  78.9239158  40.0188067
  86.7167783  79.8981930  39.6711053  80.8137691  81.2398581  34.8627841
  81.3645116  81.1115644  34.0904834  79.9749167  81.5393470  34.5122733
  88.1531808  79.9905579  38.3648563  88.1350283  80.8114460  37.8728832
  89.0751728  79.8659654  38.5898704  84.6104862  77.5049709  39.2072072
  85.1433199  76.7437997  38.9771380  84.0818943  77.2123360  39.9496226
  87.7774557  62.6109775  34.7365713  87.4338826  63.5011416  34.6604824
  88.1453520  62.4211432  33.8735298  75.8460408  74.9343305  27.5554316
  76.6835630  75.3440313  27.3388023  76.0238675  73.9942747  27.5254509
  87.7424840  72.6018386  23.2438149  87.2271463  73.3722990  23.4826536
  87.4702148  71.9283522  23.8671210  85.3271951  67.4468086  28.3023387
  84.4713547  67.0574937  28.1229026  85.7398902  67.5260047  27.4423172
  86.8571097  64.9814430  32.7014947  86.3535893  64.9444565  31.8882752
  87.1501704  65.8907172  32.7611603  83.1013983  65.0653159  31.7081128
  83.9666980  64.8695968  31.3487018  83.1691492  64.8363511  32.6350485
  92.7159114  75.3550740  25.1791322  91.9388557  75.0161900  24.7346484
  93.3950595  75.3603363  24.5046287  87.5311143  70.4745478  25.0697930
  87.2261278  70.7891627  25.9208073  88.4841585  70.5526898  25.1125263
  85.9757575  76.6335701  26.7190884  85.4478936  75.8988461  26.4064121
  85.4745077  77.4110377  26.4730852  90.9550421  74.8284722  31.8357930
  90.2974095  75.5183983  31.9238059  91.7590820  75.2181154  32.1791916
  80.7076302  67.2955367  29.0797495  81.2820054  67.0730549  28.3470688
  81.2947285  67.3644062  29.8326097  89.7655879  73.1829094  29.8861872
  90.2787761  73.8159086  30.3883581  90.4157103  72.5830290  29.5205232
  81.0345889  69.3259828  23.0993380  80.1983202  69.6634515  23.4202655
  80.8950659  69.1908808  22.1620517  83.0098970  64.1696616  27.8072565
  82.3563382  63.8545633  27.1829179  82.9679444  63.5472357  28.5332388
  84.1210175  74.4515911  19.7225857  83.2137237  74.2205165  19.9217006
  84.6181207  73.6553531  19.9099838  87.0278254  83.1613419  22.6422543
  86.3539952  83.4645115  23.2507501  87.4144076  83.9642499  22.2928000
  86.2436710  70.6578550  32.1320212  85.3259272  70.8793497  31.9741900
  86.6596854  70.7324860  31.2731920  87.0271758  72.0569965  27.2622893
  87.7743577  72.5691363  26.9530015  87.2963348  71.7354018  28.1227286
  85.2998408  74.5528506  24.2449847  84.3909628  74.2687539  24.3422317
  85.3293492  74.9727585  23.3853154  90.5317676  78.1635096  28.0141014
  90.0780003  77.3226006  28.0706205  89.9011642  78.7996494  28.3515795
  89.4750595  69.0927082  29.2441682  88.7373352  68.5804468  29.5751924
  89.7277369  68.6527463  28.4324959  88.9750615  80.0011592  28.9490833
  89.2673589  80.5616650  28.2303198  89.4849235  80.2940153  29.7043992
  89.5762223  61.8703334  29.8383451  89.8821099  61.0100697  29.5509366
  90.3014827  62.4620954  29.6382445  75.8686579  72.2734020  28.2265049
  75.6710978  71.6803381  27.5016116  75.3133243  71.9686231  28.9440988
  83.8483302  72.1657127  30.3459642  83.9031912  71.2130963  30.2702119
  83.0374504  72.3216566  30.8300941  84.9974496  76.0937250  21.5837925
  84.5593926  75.3773109  21.1243563  85.7384937  76.3213365  21.0223017
  81.7875662  70.7834187  28.1050021  80.9743528  71.0828357  28.5115213
  82.2834656  70.3889875  28.8224503  83.9384240  80.7791943  30.0384286
  83.8960419  81.0052790  29.1092818  84.8546939  80.5455318  30.1870087
  87.3849874  71.2476011  36.9364915  87.7399262  71.4747484  37.7959381
  88.0322005  71.5794388  36.3142170  93.1147611  74.3694447  27.6414244
  92.9765509  74.5596043  26.7135433  92.7583830  75.1313830  28.0982295
  81.2789737  68.3552542  33.7211256  81.9189116  68.2141301  33.0234219
  80.4467268  68.0687055  33.3449858  93.1416990  76.4370974  32.6525515
  93.5753497  76.3446263  33.5008570  93.8548571  76.4128474  32.0145531
  82.0550041  77.6554973  29.8346248  82.8490639  77.1605293  29.6328823
  81.3441733  77.1272836  29.4713954  86.8744885  80.0373068  34.1858616
  86.9281908  80.6064004  34.9536332  86.0059667  80.2074953  33.8212653
  78.3632804  71.7998054  25.9106001  77.4330392  71.7382510  26.1275963
  78.4590276  71.2774007  25.1142642  78.2818353  68.3252867  28.4984243
  78.5425171  69.2398200  28.3893403  79.1035526  67.8577310  28.6480856
  79.7543279  69.7390624  35.6683067  80.4266332  69.5307986  35.0195716
  78.9273065  69.5412710  35.2288300  94.0032540  76.4794675  35.1858401
  94.1968430  77.3840485  35.4317676  93.9033158  76.0202094  36.0196986
  85.6568851  66.3652565  37.6848728  85.0096766  67.0642515  37.5913205
  86.4269866  66.7988709  38.0524976  89.0647649  76.6301417  40.7599281
  88.9133155  76.4011969  39.8429365  89.0552328  77.5872019  40.7730626
  85.8332985  74.2033330  35.7445548  86.7625045  74.3544490  35.5714515
  85.4124015  74.2917351  34.8894194  84.6321317  78.2283994  33.5144086
  84.4932403  77.8602779  34.3870024  83.8435913  78.7431634  33.3428043
  85.2269469  83.3293091  24.8569622  85.4021225  82.8581134  25.6715245
  84.5402257  83.9558857  25.0850883  86.1826532  77.6065597  30.9032923
  85.8476365  77.5666367  31.7990573  85.6830478  76.9410313  30.4303334
  80.1570776  73.0133227  36.4285504  80.0190574  72.2813466  37.0297044
  81.0675699  72.9242127  36.1469692  89.1185724  74.9521632  21.1769983
  88.5014894  74.2268460  21.0803036  88.6502212  75.7130992  20.8337057
  82.7853077  72.7253187  35.9169184  83.4952695  72.0846379  35.8755803
  82.7422385  72.9766081  36.8395365  90.7739855  79.6620540  38.8375763
  90.7152401  78.9779760  38.1706346  91.1759374  80.4039530  38.3856389
  81.4982011  69.7118404  37.7364824  80.9619368  69.2609143  38.3886420
  80.9098719  69.8464313  36.9935288  79.7930554  86.4782454  31.6309482
  80.0327152  87.1100978  32.3088501  78.9499751  86.1270494  31.9174842
  80.9084270  69.1707056  20.2991287  80.0313736  69.0495857  19.9353534
  81.3842023  68.3793134  20.0470176  90.7757263  77.6260124  37.0689743
  89.8884041  77.2886046  37.1916142  91.3455814  76.8943155  37.3058508
  72.4286410  73.9584216  30.3932794  73.1157450  73.6445946  29.8053810
  72.2734538  74.8625580  30.1200046  77.2321132  68.8474412  34.8217818
  77.1479321  68.2400082  34.0868228  76.4103838  69.3383430  34.8227314
  84.3058416  82.2861576  34.0350986  84.2328587  83.0916548  34.5470291
  83.8635809  82.4853542  33.2099008  84.0948196  81.5233346  27.5453808
  83.3115718  82.0655026  27.6392032  84.7940941  82.0407326  27.9448049
  87.4044846  67.3327976  30.1888013  87.9013545  66.5797938  29.8689083
  86.6331827  67.3692292  29.6231222  95.2574603  73.0368341  31.8306305
  95.2464479  73.9193057  31.4600238  94.3891983  72.6839892  31.6360842
  86.7657100  82.1848410  36.1909145  87.4785072  82.8195875  36.1185046
  86.2747128  82.2812276  35.3749147  88.4874626  76.0899663  27.7626437
  87.5530905  76.2101125  27.5931141  88.6651295  75.1872130  27.4986446
  83.9879814  69.4745359  29.9159698  83.6177602  68.9216399  30.6040603
  84.4838907  68.8703492  29.3634698  91.8747178  71.9316982  28.2976471
  92.3407630  72.7644974  28.2236773  92.3254678  71.4661964  29.0021729
  81.8169013  79.9342854  37.0114716  82.5178473  80.5679337  37.1644110
  81.3464128  80.2757585  36.2510355  89.9423409  78.2760803  25.2962623
  90.2183253  78.1617398  26.2056497  89.0727908  77.8778288  25.2574796
  89.8463841  64.2997569  32.3367372  88.9326920  64.5301796  32.5049579
  90.2756942  64.3836013  33.1881404  89.6170299  72.4887461  34.8367266
  88.9641749  72.7363369  34.1819719  89.9950679  71.6751599  34.5029743
  86.5777473  82.5247154  28.9395436  86.7599867  81.7068810  29.4023189
  87.4010459  82.7414847  28.5020326  86.9119638  81.4515339  26.2010485
  87.4407405  80.9407794  25.5880647  87.1747858  81.1357870  27.0656018
  85.6657872  73.2307272  41.3233303  84.9898509  73.1301401  41.9935678
  86.4885506  73.0746486  41.7869300  77.4136731  79.4679209  33.9445818
  77.9990168  78.7222897  34.0773723  77.2161570  79.7783165  34.8282482
  80.2675386  82.5030456  28.9608261  79.5985762  82.9876584  28.4772301
  80.1288256  82.7499677  29.8751639  72.0054386  72.0384809  32.6650262
  72.0438485  71.5048400  33.4587380  71.4994679  71.5120014  32.0461239
  84.4080655  84.5374200  35.5590919  84.9598963  84.7005821  36.3240004
  84.7486848  85.1278637  34.8870944  79.3845148  66.8849349  36.1612804
  79.4486475  67.7464180  35.7490202  79.3212268  66.2723351  35.4285162
  78.8597421  68.9572482  39.8085838  79.4869459  68.5749559  40.4223362
  78.0025340  68.7386684  40.1741531  89.2591529  79.3635457  41.4139574
  89.8031433  79.9765415  40.9194528  88.6778374  79.9215036  41.9306587
  75.6362963  70.7648911  25.7404193  75.9316405  69.8559589  25.6871247
  74.7350999  70.7436651  25.4185195  87.5449042  82.4856175  32.5454601
  87.4200182  81.6845915  32.0365547  88.2028133  82.9802369  32.0568571
  79.1657210  68.8404908  31.7231742  78.4443796  69.4540875  31.5839215
  79.9550466  69.3762672  31.6448387  89.6083951  80.2865195  34.1734151
  88.6614286  80.1670546  34.1012478  89.9566724  79.3987693  34.2560413
  81.9683524  66.1759334  37.9972393  82.4917926  66.4221631  38.7598703
  81.7495857  67.0079369  37.5775531  77.3650805  68.4463009  25.8643518
  77.0363511  67.5660388  25.6818624  77.7190176  68.3910677  26.7519907
  86.6130384  80.0817911  30.3738504  86.4655346  79.1534619  30.5546074
  87.4383877  80.1038002  29.8895579  80.4792628  68.7335979  26.2318996
  80.8188701  69.2621900  25.5097604  80.9264749  69.0716385  27.0077562
  90.2164506  80.9046470  31.4603376  91.1411053  80.6989332  31.3227828
  90.0479809  80.6562871  32.3692718  83.1736069  67.1173029  35.6822064
  82.8332889  66.3180842  36.0842744  82.4675075  67.4174740  35.1098897
  83.8252541  64.2022342  34.1349387  84.6478610  63.7282820  34.0128277
  84.0690604  64.9812825  34.6348073  82.4660775  67.2310600  24.4312289
  83.1869138  67.6091853  23.9276005  81.8426079  67.9499477  24.5347266
  86.6091898  67.9355749  25.3670621  86.8255513  68.8180387  25.0659449
  86.1285965  67.5441963  24.6376263  81.3491120  70.8941462  31.9441365
  81.2035700  71.2081765  32.8365647  80.8716323  71.5126363  31.3912264
  83.2087502  67.8844010  31.9922255  83.1949071  66.9885104  31.6554553
  83.9259931  67.8914674  32.6260541  85.0613633  68.3181351  34.0375382
  84.8031411  69.2398421  34.0359713  84.5298674  67.9211785  34.7275847
  90.0059822  81.4232138  26.8165468  90.1796699  80.8578560  26.0639320
  90.4988713  82.2233033  26.6344958  75.8236782  73.4346807  34.8829027
  75.2790250  74.2106615  35.0149301  76.7016132  73.7817611  34.7248148
  82.6124398  66.7658391  27.2609825  82.7340310  65.8375037  27.4600713
  82.3226441  66.7797077  26.3488141  85.4815589  64.4513301  30.3976545
  85.5037286  64.5152634  29.4428525  85.8983648  63.6117810  30.5917051
  95.8599213  74.1868561  28.4355768  96.3030359  73.4375886  28.0374891
  94.9825723  74.1778697  28.0529500  90.9934994  80.7398902  23.9162366
  91.6885899  81.3605595  24.1349681  91.3358145  79.8894253  24.1914744
  76.6102804  72.5616703  37.7759183  75.8684540  72.7099338  38.3623814
  76.2895548  72.8224969  36.9125933  92.8926418  78.1898608  25.4449697
  93.4177742  78.5285880  24.7199017  92.8048770  77.2545623  25.2612831
  84.5546466  82.1032681  37.5739573  84.8633593  81.8581828  38.4462273
  85.3521948  82.3079320  37.0858444  84.5767078  84.2570591  29.8044950
  84.1372069  83.7646970  30.4977807  85.3275195  83.7143559  29.5637025
  77.0559417  80.4482132  29.8069578  77.8817437  80.1485904  29.4268222
  76.7053469  79.6789754  30.2559367  82.0240950  79.8008600  31.8767252
  81.4020960  79.1379305  31.5769480  82.6945817  79.8269732  31.1940899
  75.2568022  78.3668458  30.7658512  74.4199931  77.9390633  30.5842513
  75.2291668  78.5600902  31.7029303  82.0965478  68.2790388  41.4699758
  82.1453633  69.1552511  41.0877527  82.6387992  67.7367781  40.8971401
  92.5820324  78.8231511  40.7500895  91.7915867  78.8055650  40.2105394
  92.3453678  79.3619805  41.5049931  92.7018199  75.6723978  38.0633623
  92.7516204  75.5073985  39.0049146  92.5932122  74.8051237  37.6731504
  81.5854457  78.3512523  25.3525712  81.7342578  79.0347988  24.6992385
  82.3920901  78.3317613  25.8675168  89.9921961  71.6554906  39.3792930
  90.8931824  71.5161370  39.0876928  90.0669936  71.8209360  40.3191108
  84.3264766  69.0321760  38.2246116  83.4568076  69.3255326  37.9528705
  84.5624247  69.6162205  38.9453380  94.2036395  78.0920919  38.3075645
  93.9121204  78.4550900  39.1439106  93.5908527  77.3787927  38.1288977
  95.4032078  75.6573799  30.8278215  96.2378969  76.0963603  30.9915775
  95.5391207  75.1812452  30.0086461  92.4523584  73.2153534  36.7755703
  92.9277705  73.4081180  35.9674554  91.5289149  73.2712720  36.5299087
  79.3407090  74.3777701  26.3586781  79.0953132  73.4740031  26.5566991
  79.5103005  74.3794851  25.4166259  87.0303800  65.2501377  35.7411537
  87.5485744  65.9862404  35.4158025  86.6758933  65.5565371  36.5758296
  78.6102738  70.1106058  23.8572943  77.9171983  70.1850413  23.2012979
  78.3654490  69.3466402  24.3794460  87.2816394  61.6701660  31.2612433
  87.5618148  61.0024849  31.8872860  88.0667001  61.8630755  30.7487097
  85.0849863  80.8460654  22.8237460  84.5123830  81.4650841  22.3707932
  85.6582657  81.3960015  23.3577382  91.1525253  70.0919294  35.0084008
  92.1042676  70.1917391  35.0296233  90.9828703  69.2997562  35.5182093
  89.1739632  67.1774877  35.1943409  88.5789564  67.4579890  34.4989898
  88.8889329  67.6668778  35.9660151  88.3047123  81.1297804  23.9546042
  89.2377796  81.0643366  24.1578917  88.2170335  81.9654071  23.4960575
  90.9335139  80.4463674  20.9149990  90.8548771  80.1123538  21.8085747
  91.7544806  80.9385442  20.9141462  93.6313331  73.3125414  34.1226308
  93.5989651  72.3741414  34.3085992  94.2413954  73.3909450  33.3892133
  85.4696661  72.1821466  20.1653512  86.4155766  72.0527675  20.2341930
  85.0910906  71.4436128  20.6422940  93.7807819  70.1036457  34.1684591
  93.2646868  69.3194914  33.9814520  94.6647768  69.7755174  34.3331111
  91.4418546  63.8477473  30.1280404  91.2443367  63.5392561  31.0123736
  92.0518251  64.5739111  30.2578334  99.4489880  74.3741420  33.2632345
 100.1793269  74.1126708  33.8240048  98.8396826  73.6370142  33.3034413
  97.5305177  72.5149283  33.8606796  96.8038341  72.3805248  33.2523288
  97.1152464  72.8226112  34.6663514  85.3535354  76.2339213  41.6254169
  86.2738363  76.4117812  41.8194216  85.3184937  75.2895258  41.4733868
  83.6539579  70.1071443  20.1008397  82.7471034  69.8104556  20.1771111
  83.9315560  69.8101261  19.2342684  74.5717519  71.4277806  30.5507444
  74.2520303  70.5743114  30.2581818  74.0250947  71.6426384  31.3065411
  78.3497426  74.1440247  34.2676950  78.5683436  75.0757355  34.2864984
  78.7623200  73.7848222  35.0531754  85.2701644  64.6508333  26.2552639
  84.4602373  64.3055418  26.6307885  85.9586061  64.3415876  26.8440250
  87.1992193  63.7286379  27.8776935  87.7523231  64.1481833  28.5366958
  87.4362279  62.8022127  27.9199891  83.2225292  69.7173453  43.6579699
  83.1222019  70.6667810  43.5891790  83.0046834  69.3891692  42.7855769
  82.4238363  66.9658378  20.2420377  83.2857527  67.2913276  20.5016194
  82.6088707  66.1789874  19.7293442  74.4405779  75.0480718  32.5200565
  73.7469250  74.6334671  32.0070520  75.1878770  75.0901254  31.9233984
  90.5771000  65.8386905  27.3855600  89.9969669  66.4971709  27.0033652
  90.3106932  65.0164249  26.9743017  89.0274566  65.2391962  29.5876920
  89.5274344  65.3508497  28.7791239  89.6710174  64.9353015  30.2277728
  83.0856562  73.1470592  42.4744761  82.6023644  73.9470952  42.6808650
  83.1717501  73.1578537  41.5212205  76.3542521  74.9798972  30.3966580
  76.3313210  75.0786659  29.4448463  76.6643158  75.8264122  30.7183746
  79.0129899  77.0375127  34.5113195  79.9673153  77.0059069  34.4443126
  78.8142423  76.5765750  35.3263421  79.6029281  75.6076243  37.0783992
  80.4222170  76.1020321  37.1018830  79.8766089  74.6908211  37.0501560
  89.3595878  67.9986995  26.4411948  88.4721733  68.2836646  26.2232143
  89.7749867  67.8380758  25.5939225  92.7110414  68.0233516  30.1566287
  93.4870804  68.5129968  30.4290904  91.9858548  68.4491570  30.6138157
  95.1482972  68.7361135  31.2140228  95.7427463  68.4956871  30.5033536
  95.2209556  68.0168266  31.8413764  77.3680128  82.5794746  31.5283393
  77.2334596  81.8195147  30.9621391  76.9512190  83.3035646  31.0612181
  88.5039091  77.7631670  20.5359968  89.2074941  77.9681672  21.1517623
  87.7801740  78.3308431  20.8009051  89.3336901  73.5141531  26.6562238
  89.2772103  73.9710082  25.8169870  89.8865244  72.7532215  26.4785081
  93.1441707  69.3031263  27.4812358  92.8878642  68.9027898  28.3120565
  92.5194575  70.0175057  27.3562497  97.4554045  72.0427336  29.9883649
  96.8953603  72.1120525  30.7615211  96.8497549  71.8668321  29.2683145
  80.5249254  83.4764063  31.7401835  80.4081638  84.4209496  31.6380525
  79.7041700  83.1737625  32.1287634  90.4125789  78.2014199  22.5858428
  91.2471392  77.7695397  22.4035903  90.2510131  78.0296212  23.5135322
  90.0671681  74.7046312  23.9514767  90.0120484  74.5390584  23.0103211
  89.4417736  75.4122345  24.1076957  74.8564196  69.9414376  37.7776189
  75.5023059  69.4313330  38.2663415  74.6481347  70.6783058  38.3519615
  87.3817588  77.0095224  43.2768330  88.2508748  77.1835876  42.9154965
  86.9024339  77.8289641  43.1544059  83.3767806  64.2054421  23.5300086
  83.3646476  65.1496261  23.6868356  84.2691228  64.0224567  23.2359547
  81.5503768  84.1292325  34.9557764  82.4531015  84.1615935  35.2724259
  81.3241138  83.1992776  34.9704099  83.3057370  82.8823312  31.6167842
  82.3553001  82.8825173  31.5032215  83.6089856  82.1356046  31.1003877
  87.1919926  60.7997198  27.7846022  86.4252321  60.2455684  27.9302705
  87.6030631  60.8719067  28.6460174  79.1961687  67.0881994  41.8751204
  80.0593148  66.7318798  42.0854528  78.6227097  66.7495888  42.5626608
  99.0410064  88.7183850  32.6813605  99.6788474  88.5990597  31.9776945
  98.9230907  89.6664694  32.7401557  95.8499770  88.6711278  32.6175129
  95.5118281  88.5552343  31.7295664  96.7189538  88.2702443  32.5976135
  91.7086586  90.5246754  28.6072020  91.1451451  90.4336691  27.8388308
  91.5938981  89.7046659  29.0874513  96.3319553  89.8246130  38.5761335
  96.3208194  89.4298928  37.7041839  96.4940192  89.0912202  39.1695106
  89.2551018  92.0197946  31.4456241  90.0472309  91.6788771  31.0302540
  89.4947668  92.1292921  32.3658394  91.2141771  91.2806859  24.3173620
  91.9872647  90.7335846  24.1786495  91.5667170  92.1451109  24.5288081
  93.0526814  92.6083242  37.5240519  92.7616680  93.5128872  37.4087185
  93.6883798  92.6499769  38.2384588  93.9783021  89.9860090  34.1141879
  94.5746593  89.7616112  33.3998841  94.0357992  89.2444836  34.7167326
  93.5508049  87.4399525  21.9492069  93.8033570  86.9181047  21.1875532
  92.6132608  87.2765671  22.0518753  98.5951332  86.4435304  29.7566813
  99.3814421  86.0254727  29.4057230  98.8590036  87.3481396  29.9248461
  98.7661409  91.8808154  24.4555470  98.1307242  91.9542781  25.1676374
  98.4358816  92.4701753  23.7774549 103.9959759  86.3810537  30.6599791
 104.7284931  85.8109754  30.8937621 103.2399115  85.9932137  31.1006297
  93.2704338  89.3427631  24.1516444  93.1540596  88.6672535  24.8197529
  93.3806598  88.8560005  23.3348597  95.6135879  88.8037778  27.8563134
  95.2494086  88.2768399  28.5676055  96.4702995  88.4136248  27.6829619
 101.5185180  80.0932111  35.1194400 101.1868504  80.9627522  34.8955615
 100.9230793  79.7768395  35.7988430  95.2541366  83.8327678  22.8524482
  95.4215768  84.7007915  23.2194953  95.0638535  83.9954960  21.9285771
  98.0116699  92.2944657  34.5190313  97.7117422  93.1969696  34.4106120
  97.6667759  92.0276840  35.3711465  91.4629181  88.7458454  30.5527017
  90.5379677  88.6134668  30.7604709  91.7113594  89.5252673  31.0496959
 101.4113843  84.8127197  32.1987750 100.5030720  84.7442606  31.9046511
 101.3601439  85.2899142  33.0269575  95.2330587  86.2885336  23.8371149
  95.1130212  86.7342386  24.6756629  94.5383175  86.6370653  23.2784687
  88.8237992  88.3891727  31.3870806  88.9530373  88.6426206  32.3010218
  88.1435443  88.9819435  31.0675461  92.9937479  99.0588977  27.4861280
  92.9161509 100.0096802  27.5649761  92.3899122  98.7134850  28.1436207
  95.4854709  86.2316843  40.1422647  94.7088043  86.7910763  40.1325512
  96.1245272  86.7173626  40.6637517 103.2775489  83.0143636  33.9765624
 102.6349870  83.3076169  33.3305418 102.7730418  82.8996556  34.7818820
 100.9315653  86.7606809  24.6651483 101.8433509  86.9934196  24.4899181
 100.4225300  87.3443853  24.1026562  93.7401081  89.0402296  39.7040614
  94.4815765  89.5787340  39.4275438  93.0338066  89.6668585  39.8612166
  99.2156421  91.1831437  38.3012776  99.6239777  90.7413847  37.5567408
  98.4933682  90.6084064  38.5546969  95.5687491  86.1204043  35.6746333
  96.4148686  86.5443457  35.8180982  95.5086128  85.4637668  36.3684896
  99.5385235  91.7432627  32.0565065  98.9094098  91.9078341  31.3541132
  99.1510897  92.1574237  32.8276029 103.4174467  92.6787065  29.4109428
 102.7325505  93.0585966  28.8606462 103.5018316  93.2882392  30.1441376
  98.7186936  83.7808412  37.3327506  98.4747868  84.5350472  36.7961782
  98.9946867  84.1593759  38.1674753 100.6725399  90.3247024  36.0104772
 100.8842294  90.9678784  35.3339153 100.6255147  89.4909341  35.5426702
  98.2751628  82.9364845  32.9141344  97.4136107  83.2346098  33.2058082
  98.3014062  83.1535244  31.9822377  95.0913197  91.4807035  29.3215150
  95.5551543  91.7594738  28.5319772  94.8269995  90.5790480  29.1388240
  91.9837278  91.0278517  32.2594913  92.5538635  91.4565785  31.6212397
  92.5745390  90.7461102  32.9579099  94.0282083  87.6030188  26.1304715
  94.7306127  88.0551231  26.5978641  93.6962712  86.9614007  26.7584608
  92.4762445  86.1941944  40.5055924  91.8461105  86.8758225  40.7391321
  92.3698533  86.0825026  39.5609062  87.7707417  85.8613740  31.4321848
  86.9806471  86.1171269  30.9561959  88.2618665  86.6762078  31.5373889
 101.7871227  93.2018980  34.1827129 102.6088670  92.7999167  33.9009811
 101.7833630  93.0987214  35.1343245  89.7222163  86.2258320  28.3905325
  88.9253326  86.3377014  28.9088821  89.4947755  86.5644972  27.5246216
  95.5527830  92.7503023  36.3387840  95.6172263  93.2123430  37.1746011
  94.8438754  92.1200388  36.4670149  86.0545120  86.1144231  33.8636839
  86.3053159  86.9991241  34.1294415  86.5904669  85.9348832  33.0911931
 109.8777220  89.5457728  30.5312101 109.1240928  88.9765126  30.3756105
 110.0124761  89.5120393  31.4782735  95.2675848  94.4171130  26.2066820
  95.1321523  95.2622666  26.6351668  95.8085660  94.6190408  25.4432754
  91.7543187  80.4962710  42.8681175  91.3610133  79.9428909  43.5428819
  92.5709328  80.8073289  43.2587693  88.7205245  91.9346568  26.7794745
  89.2329766  92.7289819  26.9300310  89.3727958  91.2372859  26.7128347
  90.5300130  95.0512325  28.8617498  90.7066758  95.9730289  28.6738482
  91.3256963  94.7370744  29.2911878  94.6711148  81.9120589  40.4601432
  95.4120862  82.5127742  40.3805894  94.9029071  81.1698227  39.9019474
  89.8152486  87.0976957  38.7379661  89.7006002  86.1962214  39.0386760
  88.9597004  87.3440653  38.3864478  96.8944324  95.0394697  40.3367162
  96.4508178  94.2531075  40.0188067  97.5561538  95.2273847  39.6711053
  91.6531445  96.5690498  34.8627841  92.2038871  96.4407562  34.0904834
  90.8142921  96.8685387  34.5122733  98.9925562  95.3197497  38.3648563
  98.9744038  96.1406378  37.8728832  99.9145482  95.1951572  38.5898704
  95.4498616  92.8341626  39.2072072  95.9826953  92.0729914  38.9771380
  94.9212698  92.5415278  39.9496226  98.6168311  77.9401692  34.7365713
  98.2732581  78.8303334  34.6604824  98.9847274  77.7503350  33.8735298
  86.6854162  90.2635223  27.5554316  87.5229384  90.6732231  27.3388023
  86.8632430  89.3234665  27.5254509  98.5818594  87.9310303  23.2438149
  98.0665218  88.7014908  23.4826536  98.3095903  87.2575440  23.8671210
  96.1665705  82.7760004  28.3023387  95.3107301  82.3866855  28.1229026
  96.5792657  82.8551965  27.4423172  97.6964852  80.3106347  32.7014947
  97.1929647  80.2736483  31.8882752  97.9895459  81.2199090  32.7611603
  93.9407738  80.3945077  31.7081128  94.8060734  80.1987886  31.3487018
  94.0085247  80.1655429  32.6350485  98.3704897  85.8037395  25.0697930
  98.0655033  86.1183545  25.9208073  99.3235339  85.8818815  25.1125263
  96.8151329  91.9627619  26.7190884  96.2872691  91.2280378  26.4064121
  96.3138832  92.7402295  26.4730852 101.7944175  90.1576639  31.8357930
 101.1367850  90.8475901  31.9238059 102.5984574  90.5473071  32.1791916
  91.5470057  82.6247285  29.0797495  92.1213809  82.4022467  28.3470688
  92.1341039  82.6935980  29.8326097 100.6049634  88.5121012  29.8861872
 101.1181516  89.1451004  30.3883581 101.2550858  87.9122207  29.5205232
  91.8739644  84.6551746  23.0993380  91.0376956  84.9926433  23.4202655
  91.7344413  84.5200726  22.1620517  93.8492724  79.4988534  27.8072565
  93.1957137  79.1837551  27.1829179  93.8073199  78.8764274  28.5332388
  97.0830465  85.9870467  32.1320212  96.1653026  86.2085414  31.9741900
  97.4990608  86.0616778  31.2731920  97.8665513  87.3861883  27.2622893
  98.6137332  87.8983280  26.9530015  98.1357102  87.0645936  28.1227286
  96.1392163  89.8820424  24.2449847  95.2303382  89.5979457  24.3422317
  96.1687247  90.3019502  23.3853154 101.3711430  93.4927013  28.0141014
 100.9173757  92.6517923  28.0706205 100.7405397  94.1288412  28.3515795
 100.3144350  84.4218999  29.2441682  99.5767107  83.9096386  29.5751924
 100.5671123  83.9819381  28.4324959  99.8144369  95.3303510  28.9490833
 100.1067344  95.8908567  28.2303198 100.3242990  95.6232071  29.7043992
 100.4155977  77.1995251  29.8383451 100.7214854  76.3392615  29.5509366
 101.1408582  77.7912872  29.6382445  86.7080333  87.6025938  28.2265049
  86.5104733  87.0095299  27.5016116  86.1526997  87.2978148  28.9440988
  94.6877057  87.4949044  30.3459642  94.7425667  86.5422881  30.2702119
  93.8768259  87.6508484  30.8300941  92.6269417  86.1126104  28.1050021
  91.8137282  86.4120275  28.5115213  93.1228411  85.7181793  28.8224503
  94.7777995  96.1083861  30.0384286  94.7354173  96.3344707  29.1092818
  95.6940693  95.8747236  30.1870087  98.2243628  86.5767929  36.9364915
  98.5793016  86.8039402  37.7959381  98.8715760  86.9086305  36.3142170
 103.9541365  89.6986365  27.6414244 103.8159264  89.8887961  26.7135433
 103.5977584  90.4605747  28.0982295  92.1183491  83.6844460  33.7211256
  92.7582871  83.5433219  33.0234219  91.2861022  83.3978973  33.3449858
 103.9810745  91.7662892  32.6525515 104.4147252  91.6738181  33.5008570
 104.6942326  91.7420392  32.0145531  92.8943795  92.9846890  29.8346248
  93.6884394  92.4897210  29.6328823  92.1835488  92.4564753  29.4713954
  97.7138640  95.3664986  34.1858616  97.7675662  95.9355922  34.9536332
  96.8453421  95.5366871  33.8212653  89.2026559  87.1289972  25.9106001
  88.2724147  87.0674427  26.1275963  89.2984031  86.6065925  25.1142642
  89.1212108  83.6544785  28.4984243  89.3818925  84.5690118  28.3893403
  89.9429280  83.1869227  28.6480856  90.5937033  85.0682542  35.6683067
  91.2660087  84.8599904  35.0195716  89.7666820  84.8704628  35.2288300
 104.8426295  91.8086592  35.1858401 105.0362185  92.7132403  35.4317676
 104.7426913  91.3494011  36.0196986  96.4962605  81.6944483  37.6848728
  95.8490520  82.3934432  37.5913205  97.2663621  82.1280627  38.0524976
  99.9041403  91.9593335  40.7599281  99.7526910  91.7303887  39.8429365
  99.8946083  92.9163936  40.7730626  96.6726740  89.5325248  35.7445548
  97.6018800  89.6836407  35.5714515  96.2517770  89.6209269  34.8894194
  95.4715071  93.5575912  33.5144086  95.3326157  93.1894697  34.3870024
  94.6829668  94.0723552  33.3428043  97.0220287  92.9357515  30.9032923
  96.6870119  92.8958285  31.7990573  96.5224232  92.2702231  30.4303334
  90.9964530  88.3425145  36.4285504  90.8584328  87.6105384  37.0297044
  91.9069454  88.2534045  36.1469692  93.6246831  88.0545104  35.9169184
  94.3346450  87.4138296  35.8755803  93.5816139  88.3057999  36.8395365
 101.6133610  94.9912458  38.8375763 101.5546156  94.3071678  38.1706346
 102.0153128  95.7331448  38.3856389  92.3375765  85.0410322  37.7364824
  91.8013122  84.5901061  38.3886420  91.7492474  85.1756231  36.9935288
  90.6324309 101.8074371  31.6309482  90.8720907 102.4392896  32.3088501
  89.7893505 101.4562411  31.9174842  91.7478024  84.4998974  20.2991287
  90.8707490  84.3787774  19.9353534  92.2235777  83.7085052  20.0470176
 101.6151017  92.9552041  37.0689743 100.7277796  92.6177963  37.1916142
 102.1849568  92.2235073  37.3058508  83.2680164  89.2876133  30.3932794
  83.9551204  88.9737863  29.8053810  83.1128293  90.1917498  30.1200046
  88.0714886  84.1766330  34.8217818  87.9873075  83.5691999  34.0868228
  87.2497593  84.6675348  34.8227314  95.1452170  97.6153494  34.0350986
  95.0722342  98.4208465  34.5470291  94.7029564  97.8145460  33.2099008
  94.9341950  96.8525264  27.5453808  94.1509472  97.3946944  27.6392032
  95.6334695  97.3699244  27.9448049  98.2438600  82.6619893  30.1888013
  98.7407300  81.9089856  29.8689083  97.4725582  82.6984210  29.6231222
 106.0968358  88.3660259  31.8306305 106.0858234  89.2484974  31.4600238
 105.2285737  88.0131810  31.6360842  97.6050854  97.5140328  36.1909145
  98.3178826  98.1487793  36.1185046  97.1140883  97.6104194  35.3749147
  99.3268381  91.4191581  27.7626437  98.3924660  91.5393043  27.5931141
  99.5045049  90.5164047  27.4986446  94.8273569  84.8037276  29.9159698
  94.4571357  84.2508317  30.6040603  95.3232661  84.1995410  29.3634698
 102.7140932  87.2608900  28.2976471 103.1801384  88.0936891  28.2236773
 103.1648433  86.7953881  29.0021729  92.6562768  95.2634771  37.0114716
  93.3572227  95.8971254  37.1644110  92.1857883  95.6049503  36.2510355
 100.7817163  93.6052721  25.2962623 101.0577007  93.4909316  26.2056497
  99.9121662  93.2070206  25.2574796 100.6857595  79.6289487  32.3367372
  99.7720675  79.8593714  32.5049579 101.1150696  79.7127931  33.1881404
 100.4564054  87.8179379  34.8367266  99.8035504  88.0655286  34.1819719
 100.8344433  87.0043517  34.5029743  97.4171227  97.8539072  28.9395436
  97.5993622  97.0360728  29.4023189  98.2404213  98.0706764  28.5020326
  97.7513393  96.7807257  26.2010485  98.2801159  96.2699712  25.5880647
  98.0141612  96.4649787  27.0656018  96.5051627  88.5599190  41.3233303
  95.8292264  88.4593319  41.9935678  97.3279260  88.4038404  41.7869300
  88.2530486  94.7971126  33.9445818  88.8383922  94.0514814  34.0773723
  88.0555324  95.1075083  34.8282482  91.1069141  97.8322374  28.9608261
  90.4379516  98.3168501  28.4772301  90.9682011  98.0791594  29.8751639
  82.8448140  87.3676727  32.6650262  82.8832240  86.8340317  33.4587380
  82.3388433  86.8411932  32.0461239  95.2474409  99.8666117  35.5590919
  95.7992717 100.0297739  36.3240004  95.5880603 100.4570555  34.8870944
  90.2238903  82.2141267  36.1612804  90.2880229  83.0756098  35.7490202
  90.1606023  81.6015269  35.4285162  89.6991175  84.2864400  39.8085838
  90.3263214  83.9041477  40.4223362  88.8419094  84.0678602  40.1741531
 100.0985284  94.6927375  41.4139574 100.6425188  95.3057333  40.9194528
  99.5172129  95.2506953  41.9306587  86.4756718  86.0940829  25.7404193
  86.7710159  85.1851507  25.6871247  85.5744754  86.0728568  25.4185195
  98.3842797  97.8148093  32.5454601  98.2593936  97.0137833  32.0365547
  99.0421888  98.3094286  32.0568571  90.0050965  84.1696825  31.7231742
  89.2837551  84.7832793  31.5839215  90.7944221  84.7054590  31.6448387
 100.4477705  95.6157113  34.1734151  99.5008041  95.4962464  34.1012478
 100.7960478  94.7279611  34.2560413  92.8077278  81.5051252  37.9972393
  93.3311680  81.7513548  38.7598703  92.5889612  82.3371287  37.5775531
  88.2044560  83.7754926  25.8643518  87.8757266  82.8952305  25.6818624
  88.5583930  83.7202595  26.7519907  97.4524138  95.4109829  30.3738504
  97.3049101  94.4826537  30.5546074  98.2777632  95.4329920  29.8895579
  91.3186383  84.0627896  26.2318996  91.6582455  84.5913817  25.5097604
  91.7658503  84.4008302  27.0077562 101.0558260  96.2338388  31.4603376
 101.9804808  96.0281249  31.3227828 100.8873564  95.9854789  32.3692718
  94.0129823  82.4464947  35.6822064  93.6726644  81.6472760  36.0842744
  93.3068830  82.7466658  35.1098897  94.6646295  79.5314259  34.1349387
  95.4872365  79.0574738  34.0128277  94.9084359  80.3104743  34.6348073
  93.3054530  82.5602518  24.4312289  94.0262892  82.9383771  23.9276005
  92.6819834  83.2791395  24.5347266  97.4485653  83.2647667  25.3670621
  97.6649267  84.1472305  25.0659449  96.9679720  82.8733880  24.6376263
  92.1884874  86.2233380  31.9441365  92.0429455  86.5373683  32.8365647
  91.7110078  86.8418280  31.3912264  94.0481257  83.2135928  31.9922255
  94.0342826  82.3177021  31.6554553  94.7653685  83.2206592  32.6260541
  95.9007388  83.6473268  34.0375382  95.6425165  84.5690339  34.0359713
  95.3692428  83.2503703  34.7275847  86.6630536  88.7638724  34.8829027
  86.1184004  89.5398532  35.0149301  87.5409886  89.1109529  34.7248148
  93.4518153  82.0950308  27.2609825  93.5734064  81.1666954  27.4600713
  93.1620195  82.1088994  26.3488141  96.3209343  79.7805219  30.3976545
  96.3431040  79.8444552  29.4428525  96.7377402  78.9409727  30.5917051
 106.6992968  89.5160478  28.4355768 107.1424114  88.7667803  28.0374891
 105.8219478  89.5070615  28.0529500  87.4496558  87.8908621  37.7759183
  86.7078294  88.0391256  38.3623814  87.1289302  88.1516886  36.9125933
  95.3940221  97.4324599  37.5739573  95.7027347  97.1873746  38.4462273
  96.1915703  97.6371237  37.0858444  95.4160833  99.5862509  29.8044950
  94.9765823  99.0938887  30.4977807  96.1668950  99.0435476  29.5637025
  87.8953172  95.7774049  29.8069578  88.7211192  95.4777821  29.4268222
  87.5447224  95.0081672  30.2559367  92.8634705  95.1300518  31.8767252
  92.2414714  94.4671223  31.5769480  93.5339572  95.1561649  31.1940899
  86.0961777  93.6960376  30.7658512  85.2593685  93.2682550  30.5842513
  86.0685422  93.8892819  31.7029303  92.9359232  83.6082306  41.4699758
  92.9847388  84.4844428  41.0877527  93.4781747  83.0659699  40.8971401
 103.4214078  94.1523429  40.7500895 102.6309622  94.1347568  40.2105394
 103.1847433  94.6911723  41.5049931 103.5411953  91.0015895  38.0633623
 103.5909958  90.8365903  39.0049146 103.4325876  90.1343154  37.6731504
  92.4248212  93.6804441  25.3525712  92.5736332  94.3639905  24.6992385
  93.2314655  93.6609531  25.8675168 100.8315716  86.9846823  39.3792930
 101.7325578  86.8453288  39.0876928 100.9063690  87.1501278  40.3191108
  95.1658521  84.3613678  38.2246116  94.2961830  84.6547244  37.9528705
  95.4018001  84.9454123  38.9453380 105.0430150  93.4212837  38.3075645
 104.7514958  93.7842817  39.1439106 104.4302281  92.7079845  38.1288977
 106.2425832  90.9865717  30.8278215 107.0772724  91.4255521  30.9915775
 106.3784961  90.5104370  30.0086461 103.2917338  88.5445451  36.7755703
 103.7671460  88.7373098  35.9674554 102.3682904  88.6004637  36.5299087
  90.1800845  89.7069619  26.3586781  89.9346887  88.8031949  26.5566991
  90.3496759  89.7086769  25.4166259  97.8697555  80.5793295  35.7411537
  98.3879499  81.3154322  35.4158025  97.5152687  80.8857288  36.5758296
  89.4496492  85.4397976  23.8572943  88.7565737  85.5142331  23.2012979
  89.2048244  84.6758320  24.3794460  98.1210149  76.9993577  31.2612433
  98.4011903  76.3316767  31.8872860  98.9060756  77.1922673  30.7487097
 101.9919007  85.4211211  35.0084008 102.9436430  85.5209309  35.0296233
 101.8222458  84.6289480  35.5182093 100.0133387  82.5066795  35.1943409
  99.4183319  82.7871807  34.4989898  99.7283083  82.9960696  35.9660151
 104.4707085  88.6417331  34.1226308 104.4383405  87.7033332  34.3085992
 105.0807709  88.7201368  33.3892133  96.3090416  87.5113384  20.1653512
  97.2549521  87.3819592  20.2341930  95.9304661  86.7728046  20.6422940
 104.6201573  85.4328375  34.1684591 104.1040622  84.6486831  33.9814520
 105.5041522  85.1047091  34.3331111 102.2812300  79.1769390  30.1280404
 102.0837122  78.8684478  31.0123736 102.8912006  79.9031029  30.2578334
 110.2883635  89.7033338  33.2632345 111.0187023  89.4418626  33.8240048
 109.6790580  88.9662060  33.3034413 108.3698932  87.8441201  33.8606796
 107.6432096  87.7097166  33.2523288 107.9546219  88.1518029  34.6663514
  96.1929108  91.5631130  41.6254169  97.1132118  91.7409729  41.8194216
  96.1578691  90.6187176  41.4733868  94.4933333  85.4363361  20.1008397
  93.5864788  85.1396473  20.1771111  94.7709314  85.1393179  19.2342684
  85.4111273  86.7569724  30.5507444  85.0914058  85.9035032  30.2581818
  84.8644702  86.9718302  31.3065411  89.1891181  89.4732165  34.2676950
  89.4077191  90.4049273  34.2864984  89.6016955  89.1140139  35.0531754
  96.1095399  79.9800250  26.2552639  95.2996127  79.6347335  26.6307885
  96.7979816  79.6707794  26.8440250  98.0385947  79.0578297  27.8776935
  98.5916986  79.4773750  28.5366958  98.2756033  78.1314045  27.9199891
  94.0619046  85.0465371  43.6579699  93.9615773  85.9959728  43.5891790
  93.8440588  84.7183610  42.7855769  93.2632118  82.2950296  20.2420377
  94.1251282  82.6205194  20.5016194  93.4482462  81.5081792  19.7293442
  85.2799533  90.3772635  32.5200565  84.5863005  89.9626588  32.0070520
  86.0272524  90.4193172  31.9233984 101.4164754  81.1678822  27.3855600
 100.8363423  81.8263626  27.0033652 101.1500687  80.3456167  26.9743017
  99.8668320  80.5683880  29.5876920 100.3668099  80.6800414  28.7791239
 100.5103928  80.2644933  30.2277728  93.9250316  88.4762510  42.4744761
  93.4417398  89.2762870  42.6808650  94.0111255  88.4870454  41.5212205
  87.1936276  90.3090889  30.3966580  87.1706964  90.4078576  29.4448463
  87.5036912  91.1556040  30.7183746  89.8523654  92.3667044  34.5113195
  90.8066907  92.3350987  34.4443126  89.6536177  91.9057668  35.3263421
  90.4423036  90.9368160  37.0783992  91.2615925  91.4312239  37.1018830
  90.7159844  90.0200128  37.0501560 100.1989632  83.3278913  26.4411948
  99.3115487  83.6128563  26.2232143 100.6143621  83.1672676  25.5939225
 103.5504168  83.3525434  30.1566287 104.3264558  83.8421886  30.4290904
 102.8252302  83.7783488  30.6138157 105.9876727  84.0653053  31.2140228
 106.5821218  83.8248789  30.5033536 106.0603311  83.3460183  31.8413764
  88.2073883  97.9086664  31.5283393  88.0728351  97.1487065  30.9621391
  87.7905945  98.6327564  31.0612181 100.1730656  88.8433449  26.6562238
 100.1165857  89.3002000  25.8169870 100.7258998  88.0824133  26.4785081
 103.9835462  84.6323180  27.4812358 103.7272396  84.2319816  28.3120565
 103.3588330  85.3466974  27.3562497 108.2947800  87.3719254  29.9883649
 107.7347358  87.4412443  30.7615211 107.6891303  87.1960238  29.2683145
  91.3643008  98.8055981  31.7401835  91.2475393  99.7501413  31.6380525
  90.5435455  98.5029542  32.1287634 100.9065435  90.0338230  23.9514767
 100.8514239  89.8682501  23.0103211 100.2811490  90.7414263  24.1076957
  85.6957950  85.2706294  37.7776189  86.3416814  84.7605248  38.2663415
  85.4875101  86.0074976  38.3519615  98.2211342  92.3387142  43.2768330
  99.0902502  92.5127794  42.9154965  97.7418094  93.1581558  43.1544059
  94.2161561  79.5346339  23.5300086  94.2040230  80.4788179  23.6868356
  95.1084983  79.3516484  23.2359547  92.3897523  99.4584243  34.9557764
  93.2924769  99.4907853  35.2724259  92.1634893  98.5284694  34.9704099
  94.1451125  98.2115229  31.6167842  93.1946756  98.2117091  31.5032215
  94.4483611  97.4647964  31.1003877  98.0313680  76.1289115  27.7846022
  97.2646076  75.5747602  27.9302705  98.4424385  76.2010984  28.6460174
  90.0355441  82.4173911  41.8751204  90.8986903  82.0610716  42.0854528
  89.4620852  82.0787806  42.5626608 107.1713307 105.1538047  38.5761335
 107.1601948 104.7590846  37.7041839 107.3333947 104.4204120  39.1695106
 112.3578934  95.4224029  35.1194400 112.0262259  96.2919440  34.8955615
 111.7624547  95.1060313  35.7988430  99.6631746 103.7183645  31.3870806
  99.7924127 103.9718124  32.3010218  98.9829197 104.3111353  31.0675461
 106.3248463 101.5608761  40.1422647 105.5481797 102.1202681  40.1325512
 106.9639026 102.0465543  40.6637517 114.1169244  98.3435553  33.9765624
 113.4743624  98.6368086  33.3305418 113.6124172  98.2288474  34.7818820
 104.5794835 104.3694214  39.7040614 105.3209520 104.9079258  39.4275438
 103.8731821 104.9960503  39.8612166 106.4081245 101.4495961  35.6746333
 107.2542440 101.8735375  35.8180982 106.3479883 100.7929585  36.3684896
 109.5580690  99.1100329  37.3327506 109.3141622  99.8642390  36.7961782
 109.8340621  99.4885677  38.1674753 109.1145382  98.2656762  32.9141344
 108.2529861  98.5638016  33.2058082 109.1407817  98.4827161  31.9822377
 103.3156199 101.5233862  40.5055924 102.6854860 102.2050143  40.7391321
 103.2092287 101.4116944  39.5609062  98.6101172 101.1905658  31.4321848
  97.8200226 101.4463187  30.9561959  99.1012419 102.0053996  31.5373889
  96.8938875 101.4436149  33.8636839  97.1446913 102.3283158  34.1294415
  97.4298423 101.2640750  33.0911931 102.5936942  95.8254628  42.8681175
 102.2003888  95.2720826  43.5428819 103.4103082  96.1365206  43.2587693
 105.5104903  97.2412507  40.4601432 106.2514616  97.8419660  40.3805894
 105.7422826  96.4990145  39.9019474 100.6546241 102.4268874  38.7379661
 100.5399756 101.5254131  39.0386760  99.7990759 102.6732571  38.3864478
 109.4562066  93.2693610  34.7365713 109.1126335  94.1595252  34.6604824
 109.8241028  93.0795268  33.8735298 108.5358606  95.6398265  32.7014947
 108.0323402  95.6028400  31.8882752 108.8289213  96.5491008  32.7611603
 104.7801492  95.7236995  31.7081128 105.6454489  95.5279803  31.3487018
 104.8479001  95.4947347  32.6350485 102.3863811  97.9539203  29.0797495
 102.9607563  97.7314384  28.3470688 102.9734794  98.0227897  29.8326097
 104.6886479  94.8280452  27.8072565 104.0350891  94.5129469  27.1829179
 104.6466953  94.2056192  28.5332388 111.2549732  92.5287169  29.8383451
 111.5608608  91.6684533  29.5509366 111.9802336  93.1204789  29.6382445
 109.0637383 101.9059846  36.9364915 109.4186771 102.1331320  37.7959381
 109.7109514 102.2378223  36.3142170 102.9577246  99.0136377  33.7211256
 103.5976625  98.8725137  33.0234219 102.1254777  98.7270891  33.3449858
  99.9605862  98.9836702  28.4984243 100.2212680  99.8982036  28.3893403
 100.7823035  98.5161145  28.6480856 101.4330788 100.3974460  35.6683067
 102.1053841 100.1891822  35.0195716 100.6060574 100.1996546  35.2288300
 107.3356360  97.0236401  37.6848728 106.6884275  97.7226350  37.5913205
 108.1057375  97.4572544  38.0524976 101.8358285 103.6717063  36.4285504
 101.6978083 102.9397301  37.0297044 102.7463208 103.5825963  36.1469692
 104.4640586 103.3837022  35.9169184 105.1740204 102.7430214  35.8755803
 104.4209894 103.6349917  36.8395365 103.1769520 100.3702240  37.7364824
 102.6406877  99.9192978  38.3886420 102.5886228 100.5048149  36.9935288
  94.1073919 104.6168051  30.3932794  94.7944959 104.3029781  29.8053810
  93.9522047 105.5209416  30.1200046  98.9108641  99.5058247  34.8217818
  98.8266830  98.8983917  34.0868228  98.0891347  99.9967266  34.8227314
 111.5251350  94.9581404  32.3367372 110.6114429  95.1885631  32.5049579
 111.9544451  95.0419849  33.1881404 107.3445381 103.8891108  41.3233303
 106.6686018 103.7885237  41.9935678 108.1673015 103.7330321  41.7869300
  99.0924240 110.1263044  33.9445818  99.6777677 109.3806732  34.0773723
  98.8949079 110.4367001  34.8282482  93.6841895 102.6968644  32.6650262
  93.7225994 102.1632235  33.4587380  93.1782188 102.1703850  32.0461239
 101.0632657  97.5433185  36.1612804 101.1273984  98.4048016  35.7490202
 100.9999777  96.9307186  35.4285162 100.5384930  99.6156317  39.8085838
 101.1656968  99.2333395  40.4223362  99.6812849  99.3970519  40.1741531
 100.8444719  99.4988743  31.7231742 100.1231305 100.1124711  31.5839215
 101.6337975 100.0346508  31.6448387 103.6471033  96.8343170  37.9972393
 104.1705435  97.0805466  38.7598703 103.4283366  97.6663204  37.5775531
 104.8523578  97.7756865  35.6822064 104.5120398  96.9764678  36.0842744
 104.1462584  98.0758575  35.1098897 105.5040050  94.8606177  34.1349387
 106.3266119  94.3866655  34.0128277 105.7478113  95.6396661  34.6348073
 103.0278629 101.5525298  31.9441365 102.8823209 101.8665601  32.8365647
 102.5503832 102.1710198  31.3912264 104.8875011  98.5427846  31.9922255
 104.8736580  97.6468939  31.6554553 105.6047440  98.5498509  32.6260541
 106.7401142  98.9765186  34.0375382 106.4818920  99.8982257  34.0359713
 106.2086183  98.5795620  34.7275847  97.5024291 104.0930642  34.8829027
  96.9577759 104.8690450  35.0149301  98.3803641 104.4401447  34.7248148
 107.1603098  95.1097136  30.3976545 107.1824795  95.1736469  29.4428525
 107.5771157  94.2701645  30.5917051  98.2890313 103.2200538  37.7759183
  97.5472049 103.3683174  38.3623814  97.9683057 103.4808804  36.9125933
 103.7752987  98.9374223  41.4699758 103.8241142  99.8136346  41.0877527
 104.3175501  98.3951616  40.8971401 106.0052275  99.6905596  38.2246116
 105.1355585  99.9839162  37.9528705 106.2411756 100.2746041  38.9453380
 108.7091309  95.9085213  35.7411537 109.2273253  96.6446240  35.4158025
 108.3546442  96.2149206  36.5758296 108.9603903  92.3285495  31.2612433
 109.2405657  91.6608684  31.8872860 109.7454510  92.5214591  30.7487097
 110.8527141  97.8358712  35.1943409 110.2577073  98.1163725  34.4989898
 110.5676838  98.3252613  35.9660151  96.2505028 102.0861642  30.5507444
  95.9307812 101.2326950  30.2581818  95.7038456 102.3010220  31.3065411
 100.0284935 104.8024083  34.2676950 100.2470945 105.7341190  34.2864984
 100.4410709 104.4432057  35.0531754 104.9012801 100.3757288  43.6579699
 104.8009528 101.3251645  43.5891790 104.6834343 100.0475527  42.7855769
  96.1193288 105.7064553  32.5200565  95.4256759 105.2918506  32.0070520
  96.8666279 105.7485090  31.9233984 104.7644071 103.8054427  42.4744761
 104.2811153 104.6054787  42.6808650 104.8505010 103.8162372  41.5212205
 100.6917408 107.6958962  34.5113195 101.6460662 107.6642904  34.4443126
 100.4929932 107.2349586  35.3263421 101.2816790 106.2660078  37.0783992
 102.1009679 106.7604157  37.1018830 101.5553598 105.3492046  37.0501560
  96.5351705 100.5998212  37.7776189  97.1810568 100.0897166  38.2663415
  96.3268856 101.3366893  38.3519615 108.8707435  91.4581033  27.7846022
 108.1039830  90.9039520  27.9302705 109.2818140  91.5302902  28.6460174
 100.8749196  97.7465829  41.8751204 101.7380657  97.3902634  42.0854528
 100.3014606  97.4079724  42.5626608  52.9744536   5.5140582  25.3006642
  52.9633177   5.1193380  24.4287145  53.1365176   4.7806654  25.8940413
  49.6951797   8.2977693  24.2485825  49.4041663   9.2023324  24.1332492
  50.3308782   8.3394221  24.9629895  54.6541682   7.9839109  21.2435619
  54.3542405   8.8864148  21.1351426  54.3092742   7.7171292  22.0956772
  52.1279692   1.9211295  26.8667954  51.3513026   2.4805215  26.8570818
  52.7670255   2.4068078  27.3882824  50.3826064   4.7296748  26.4285921
  51.1240749   5.2681792  26.1520744  49.6763050   5.3563037  26.5857473
  55.8581404   6.8725889  25.0258082  56.2664760   6.4308299  24.2812715
  55.1358665   6.2978516  25.2792275  52.2112474   1.8098495  22.3991639
  53.0573669   2.2337909  22.5426288  52.1511112   1.1532120  23.0930202
  56.1810219   7.4327079  18.7810371  55.5519081   7.5972793  18.0786439
  55.7935881   7.8468689  19.5521335  60.0599450   8.3681517  16.1354735
  59.3750489   8.7480418  15.5851768  60.1443300   8.9776844  16.8686683
  55.3611919  -0.5297136  24.0572813  55.1172851   0.2244924  23.5207089
  55.6371850  -0.1511789  24.8920060  57.3150382   6.0141476  22.7350078
  57.5267277   6.6573236  22.0584460  57.2680130   5.1803793  22.2672009
  49.1187428   1.8836396  27.2301231  48.4886089   2.5652677  27.4636628
  49.0123516   1.7719478  26.2854369  58.4296210   8.8913431  20.9072436
  59.2513654   8.4893619  20.6255117  58.4258613   8.7881666  21.8588552
  52.1952813   8.4397475  23.0633146  52.2597246   8.9017882  23.8991318
  51.4863737   7.8094840  23.1915456  66.5202203   5.2352180  17.2557407
  65.7665911   4.6659578  17.1001412  66.6549744   5.2014844  18.2028042
  48.3968171  -3.8142838  29.5926482  48.0035116  -4.3676639  30.2674126
  49.2134311  -3.5032259  29.9832999  51.3136132  -2.3984959  27.1846738
  52.0545845  -1.7977806  27.1051201  51.5454055  -3.1407321  26.6264781
  46.4577470   2.7871408  25.4624968  46.3430985   1.8856666  25.7632067
  45.6021988   3.0335105  25.1109785  53.5369308  10.7289149  27.0612469
  53.0933162   9.9425527  26.7433373  54.1986521  10.9168299  26.3956359
  48.2956429  12.2584950  21.5873147  48.8463854  12.1302014  20.8150141
  47.4567905  12.5579839  21.2368040  55.6350546  11.0091949  25.0893870
  55.6169021  11.8300830  24.5974139  56.5570466  10.8846024  25.3144011
  52.0923600   8.5236078  25.9317378  52.6251937   7.7624366  25.7016686
  51.5637681   8.2309730  26.6741533  58.4369158   5.8471091  18.5603237
  57.7792833   6.5370353  18.6483365  59.2409558   6.2367523  18.9037223
  56.4569353  11.0197962  15.6736139  56.7492327  11.5803019  14.9548505
  56.9667973  11.3126523  16.4289298  54.8668612   2.2662381  23.6610222
  55.2217999   2.4933854  24.5204687  55.5140743   2.5980757  23.0387477
  60.6235728   7.4557343  19.3770822  61.0572235   7.3632633  20.2253876
  61.3367309   7.4314844  18.7390838  54.3563623  11.0559438  20.9103923
  54.4100645  11.6250374  21.6781639  53.4878405  11.2261323  20.5457960
  61.4851278   7.4981044  21.9103708  61.6787168   8.4026855  22.1562982
  61.3851896   7.0388463  22.7442293  53.1387589  -2.6161065  24.4094035
  52.4915504  -1.9171116  24.3158511  53.9088604  -2.1824921  24.7770283
  56.5466386   7.6487787  27.4844588  56.3951893   7.4198339  26.5674672
  56.5371066   8.6058388  27.4975933  53.3151723   5.2219700  22.4690855
  54.2443783   5.3730859  22.2959822  52.8942753   5.3103720  21.6139501
  52.1140055   9.2470364  20.2389392  51.9751140   8.8789148  21.1115330
  51.3254651   9.7618003  20.0673350  47.6389514   4.0319597  23.1530811
  47.5009312   3.2999836  23.7542350  48.5494437   3.9428497  22.8714999
  50.2671814   3.7439556  22.6414491  50.9771433   3.1032748  22.6001109
  50.2241123   3.9952451  23.5640672  58.2558593  10.6806909  25.5621070
  58.1971139   9.9966130  24.8951653  58.6578112  11.4225899  25.1101696
  47.2749292  17.4968823  18.3554789  47.5145890  18.1287347  19.0333807
  46.4318488  17.1456863  18.6420148  58.2576000   8.6446493  23.7935050
  57.3702779   8.3072415  23.9161449  58.8274551   7.9129525  24.0303815
  51.7877154  13.3047946  20.7596293  51.7147325  14.1102917  21.2715597
  51.3454547  13.5039912  19.9344314  62.7393341   4.0554711  18.5551611
  62.7283217   4.9379426  18.1845544  61.8710720   3.7026262  18.3606148
  54.2475837  13.2034780  22.9154452  54.9603810  13.8382245  22.8430353
  53.7565866  13.2998646  22.0994453  49.2987751  10.9529223  23.7360022
  49.9997210  11.5865706  23.8889417  48.8282866  11.2943955  22.9755662
  57.0989037   3.5073831  21.5612573  56.4460487   3.7549738  20.9065025
  57.4769417   2.6937969  21.2275050  54.0596211  13.5433524  15.6640743
  54.2418605  12.7255180  16.1268495  54.8829197  13.7601216  15.2265633
  53.1476610   4.2493642  28.0478610  52.4717247   4.1487771  28.7180985
  53.9704244   4.0932855  28.5114607  44.8955469  10.4865578  20.6691125
  45.4808906   9.7409266  20.8019029  44.6980307  10.7969535  21.5527789
  51.8899393  15.5560569  22.2836226  52.4417701  15.7192191  23.0485311
  52.2305586  16.1465007  21.6116251  46.3416158  -0.0241148  26.5331145
  46.9688197  -0.4064071  27.1468669  45.4844077  -0.2426947  26.8986837
  56.7410267  10.3821827  28.1384880  57.2850171  10.9951785  27.6439835
  56.1597112  10.9401405  28.6551893  55.0267780  13.5042545  19.2699908
  54.9018919  12.7032285  18.7610853  55.6846871  13.9988738  18.7813878
  57.0902688  11.3051565  20.8979458  56.1433024  11.1856916  20.8257785
  57.4385461  10.4174063  20.9805719  54.0949122  11.1004281  17.0983810
  53.9474084  10.1720988  17.2791380  54.9202615  11.1224372  16.6140885
  57.6983244  11.9232840  18.1848683  58.6229791  11.7175701  18.0473134
  57.5298547  11.6749241  19.0938024  52.0365204  13.1219051  24.2984880
  52.3452330  12.8768198  25.1707580  52.8340686  13.3265689  23.8103750
  52.0585816  15.2756960  16.5290257  51.6190806  14.7833339  17.2223113
  52.8093933  14.7329928  16.2882332  49.5784216  -0.7023242  28.1945064
  49.6272371   0.1738880  27.8122834  50.1206730  -1.2445849  27.6216708
  60.0639061   9.8417881  27.4746201  59.2734605   9.8242020  26.9350701
  59.8272416  10.3806174  28.2295238  60.1836936   6.6910347  24.7878930
  60.2334941   6.5260355  25.7294453  60.0750860   5.8237606  24.3976811
  57.4740699   2.6741275  26.1038237  58.3750562   2.5347740  25.8122235
  57.5488673   2.8395730  27.0436414  51.8083504   0.0508130  24.9491423
  50.9386814   0.3441696  24.6774012  52.0442985   0.6348575  25.6698687
  61.6855133   9.1107289  25.0320952  61.3939942   9.4737269  25.8684413
  61.0727265   8.3974297  24.8534284  62.8850816   6.6760168  17.5523522
  63.7197707   7.1149973  17.7161082  63.0209944   6.1998822  16.7331768
  59.9342322   4.2339903  23.5001010  60.4096443   4.4267550  22.6919861
  59.0107887   4.2899089  23.2544393  58.6343991   1.1105663  21.7329315
  59.5861413   1.2103761  21.7541539  58.4647441   0.3183932  22.2427399
  61.1132068   4.3311783  20.8471615  61.0808388   3.3927784  21.0331299
  61.7232692   4.4095820  20.1137440  61.2626557   1.1222826  20.8929898
  60.7465605   0.3381283  20.7059827  62.1466505   0.7941543  21.0576417
  66.9308618   5.3927790  19.9877652  67.6612007   5.1313078  20.5485355
  66.3215564   4.6556512  20.0279720  65.0123915   3.5335652  20.5852103
  64.2857079   3.3991617  19.9768594  64.5971202   3.8412481  21.3908821
  52.8354092   7.2525582  28.3499476  53.7557101   7.4304181  28.5439522
  52.8003675   6.3081628  28.1979175  50.7044030   0.7359823  30.3825006
  50.6040756   1.6854180  30.3137097  50.4865572   0.4078061  29.5101076
  50.5675300   4.1656961  29.1990068  50.0842381   4.9657322  29.4053957
  50.6536239   4.1764906  28.2457512  46.4948637   8.0561496  21.2358501
  47.4491891   8.0245438  21.1688433  46.2961161   7.5952120  22.0508727
  47.0848019   6.6262612  23.8029299  47.9040908   7.1206691  23.8264136
  47.3584827   5.7094580  23.7746866  48.0067992  14.4950433  18.4647142
  47.8900376  15.4395865  18.3625832  47.1860438  14.1923994  18.8532941
  54.8636326   8.0281594  30.0013637  55.7327485   8.2022246  29.6400272
  54.3843077   8.8476010  29.8789366  49.0322506  15.1478695  21.6803070
  49.9349753  15.1802305  21.9969565  48.8059876  14.2179145  21.6949406
  50.7876108  13.9009681  18.3413149  49.8371739  13.9011543  18.2277521
  51.0908594  13.1542416  17.8249184  46.6780424  -1.8931637  28.5996510
  47.5411886  -2.2494832  28.8099835  46.1045835  -2.2317742  29.2871915
  66.5228801  19.7370219  19.4058911  67.1607211  19.6176967  18.7022251
  66.4049644  20.6851063  19.4646863  63.3318508  19.6897648  19.3420436
  62.9937019  19.5738712  18.4540971  64.2008276  19.2888813  19.3221442
  59.1905323  21.5433124  15.3317327  58.6270189  21.4523061  14.5633615
  59.0757718  20.7233028  15.8119819  63.8138291  20.8432499  25.3006642
  63.8026931  20.4485298  24.4287145  63.9758930  20.1098572  25.8940413
  56.7369755  23.0384316  18.1701547  57.5291047  22.6975140  17.7547847
  56.9766405  23.1479291  19.0903701  64.7704882  25.2104092  10.6431792
  64.1192862  25.7958172  10.2565806  65.5649245  25.7410287  10.7026829
  58.6960509  22.2993229  11.0418926  59.4691385  21.7522216  10.9031802
  59.0485908  23.1637478  11.2533388  60.5345552  23.6269611  24.2485825
  60.2435418  24.5315242  24.1332492  61.1702536  23.6686139  24.9629895
  61.4601759  21.0046460  20.8387185  62.0565331  20.7802482  20.1244148
  61.5176730  20.2631205  21.4412633  66.0770070  17.4621673  16.4812119
  66.8633159  17.0441096  16.1302536  66.3408774  18.3667766  16.6493768
  66.2480147  22.8994524  11.1800776  65.6125980  22.9729150  11.8921681
  65.9177554  23.4888122  10.5019855  71.4778497  17.3996907  17.3845098
  72.2103669  16.8296123  17.6182927  70.7217853  17.0118507  17.8251603
  60.7523076  20.3614001  10.8761751  60.6359334  19.6858904  11.5442835
  60.8625336  19.8746375  10.0593904  63.0954617  19.8224148  14.5808440
  62.7312824  19.2954769  15.2921362  63.9521733  19.4322617  14.4074926
  69.0003917  11.1118481  21.8439706  68.6687242  11.9813892  21.6200921
  68.4049531  10.7954765  22.5233737  65.4935437  23.3131027  21.2435619
  65.1936160  24.2156065  21.1351426  65.1486496  23.0463210  22.0956772
  58.9447918  19.7644823  17.2772324  58.0198415  19.6321038  17.4850015
  59.1932332  20.5439043  17.7742266  68.8932581  15.8313567  18.9233056
  67.9849458  15.7628975  18.6291817  68.8420176  16.3085512  19.7514882
  62.7149325  17.3071705  10.5616456  62.5948950  17.7528756  11.4001936
  62.0201913  17.6557023  10.0029994  56.3056729  19.4078097  18.1116113
  56.4349111  19.6612576  19.0255524  55.6254181  20.0005805  17.7920768
  60.4756217  30.0775347  14.2106587  60.3980246  31.0283172  14.2895067
  59.8717860  29.7321219  14.8681513  62.9673446  17.2503212  26.8667954
  62.1906781  17.8097133  26.8570818  63.6064010  17.7359995  27.3882824
  70.7594227  14.0330005  20.7010930  70.1168607  14.3262538  20.0550725
  70.2549156  13.9182926  21.5064127  68.4134391  17.7793178  11.3896790
  69.3252247  18.0120565  11.2144487  67.9044038  18.3630223  10.8271868
  61.2219819  20.0588666  26.4285921  61.9634503  20.5973710  26.1520744
  60.5156804  20.6854955  26.5857473  66.6975158  22.2017806  25.0258082
  67.1058514  21.7600217  24.2812715  65.9752420  21.6270434  25.2792275
  63.0506228  17.1390413  22.3991639  63.8967424  17.5629827  22.5426288
  62.9904866  16.4824037  23.0930202  67.0203973  22.7618997  18.7810371
  66.3912836  22.9264711  18.0786439  66.6329635  23.1760606  19.5521335
  70.8993205  23.6973435  16.1354735  70.2144243  24.0772336  15.5851768
  70.9837054  24.3068761  16.8686683  66.2005674  14.7994781  24.0572813
  65.9566606  15.5536842  23.5207089  66.4765604  15.1780129  24.8920060
  68.1544137  21.3433394  22.7350078  68.3661032  21.9865154  22.0584460
  68.1073885  20.5095710  22.2672009  65.7570366  13.9551214  19.6386651
  64.8954845  14.2532468  19.9303388  65.7832800  14.1721613  18.7067683
  62.5731935  22.4993405  16.0460456  63.0370280  22.7781108  15.2565079
  62.3088733  21.5976850  15.8633547  59.4656016  22.0464886  18.9840219
  60.0357373  22.4752155  18.3457704  60.0564128  21.7647471  19.6824405
  61.5100821  18.6216557  12.8550021  62.2124864  19.0737601  13.3223948
  61.1781449  17.9800376  13.4829915  59.9581183  17.2128314  27.2301231
  59.3279843  17.8944595  27.4636628  59.8517270  17.1011396  26.2854369
  55.2526155  16.8800110  18.1567155  54.4625209  17.1357638  17.6807266
  55.7437402  17.6948448  18.2619195  69.2689965  24.2205349  20.9072436
  70.0907408  23.8185536  20.6255117  69.2652367  24.1173583  21.8588552
  57.2040900  17.2444689  15.1150632  56.4072064  17.3563383  15.6334127
  56.9766493  17.5831341  14.2491522  63.0346568  23.7689392  23.0633146
  63.0991000  24.2309800  23.8991318  62.3257492  23.1386757  23.1915456
  53.5363858  17.1330600  20.5882146  53.7871896  18.0177610  20.8539722
  54.0723406  16.9535202  19.8157238  77.3595958  20.5644098  17.2557407
  76.6059666  19.9951496  17.1001412  77.4943499  20.5306762  18.2028042
  62.7494586  25.4357500  12.9312127  62.6140260  26.2809036  13.3596974
  63.2904398  25.6376778  12.1678060  59.2361925  11.5149080  29.5926482
  58.8428871  10.9615278  30.2674126  60.0528066  11.8259658  29.9832999
  56.2023983  22.9532938  13.5040052  56.7148504  23.7476188  13.6545616
  56.8546696  22.2559228  13.4373653  58.0118868  26.0698694  15.5862805
  58.1885496  26.9916659  15.3983789  58.8075701  25.7557113  16.0157185
  62.1529886  12.9306959  27.1846738  62.8939600  13.5314112  27.1051201
  62.3847809  12.1884597  26.6264781  57.2971224  18.1163326  25.4624968
  57.1824739  17.2148583  25.7632067  56.4415742  18.3627023  25.1109785
  64.3763062  26.0581066  27.0612469  63.9326916  25.2717445  26.7433373
  65.0380276  26.2460217  26.3956359  59.1350183  27.5876868  21.5873147
  59.6857608  27.4593931  20.8150141  58.2961659  27.8871757  21.2368040
  66.4744300  26.3383866  25.0893870  66.4562775  27.1592747  24.5974139
  67.3964220  26.2137942  25.3144011  62.9317354  23.8527996  25.9317378
  63.4645691  23.0916284  25.7016686  62.4031435  23.5601648  26.6741533
  66.0987049   8.9588062  21.4611020  65.7551319   9.8489703  21.3850131
  66.4666012   8.7689719  20.5980605  54.1672900  21.2821592  14.2799622
  55.0048122  21.6918601  14.0633330  54.3451167  20.3421034  14.2499816
  66.0637332  18.9496673   9.9683455  65.5483955  19.7201278  10.2071843
  65.7914640  18.2761809  10.5916517  63.6484443  13.7946374  15.0268694
  62.7926039  13.4053224  14.8474332  64.0611395  13.8738334  14.1668479
  65.1783590  11.3292717  19.4260253  64.6748385  11.2922852  18.6128059
  65.4714196  12.2385460  19.4856910  61.4226475  11.4131447  18.4326435
  62.2879472  11.2174255  18.0732325  61.4903984  11.1841798  19.3595792
  71.0371606  21.7029028  11.9036629  70.2601049  21.3640187  11.4591791
  71.7163087  21.7081651  11.2291594  65.8523635  16.8223765  11.7943236
  65.5473771  17.1369914  12.6453380  66.8054077  16.9005185  11.8370569
  64.2970067  22.9813988  13.4436190  63.7691428  22.2466748  13.1309428
  63.7957570  23.7588665  13.1976159  69.2762913  21.1763009  18.5603237
  68.6186587  21.8662270  18.6483365  70.0803312  21.5659441  18.9037223
  59.0288795  13.6433655  15.8042802  59.6032546  13.4208836  15.0715995
  59.6159777  13.7122349  16.5571403  68.0868372  19.5307382  16.6107178
  68.6000253  20.1637373  17.1128888  68.7369596  18.9308577  16.2450538
  61.3311462  10.5174904  14.5317871  60.6775875  10.2023921  13.9074486
  61.2891936   9.8950644  15.2577694  65.3490746  29.5091706   9.3667850
  64.6752445  29.8123403   9.9752807  65.7356568  30.3120786   9.0173307
  64.5649203  17.0056837  18.8565519  63.6471764  17.2271784  18.6987207
  64.9809346  17.0803148  17.9977226  65.3484250  18.4048253  13.9868199
  66.0956069  18.9169650  13.6775321  65.6175840  18.0832305  14.8472593
  63.6210901  20.9006793  10.9695153  62.7122120  20.6165826  11.0667623
  63.6505984  21.3205872  10.1098460  68.8530168  24.5113383  14.7386321
  68.3992495  23.6704293  14.7951511  68.2224135  25.1474781  15.0761101
  67.7963088  15.4405369  15.9686988  67.0585844  14.9282755  16.2997231
  68.0489861  15.0005751  15.1570265  67.2963107  26.3489880  15.6736139
  67.5886082  26.9094937  14.9548505  67.8061728  26.6418441  16.4289298
  67.8974715   8.2181621  16.5628758  68.2033592   7.3578984  16.2754673
  68.6227320   8.8099241  16.3627752  54.1899071  18.6212308  14.9510356
  53.9923471  18.0281668  14.2261422  53.6345735  18.3164518  15.6686294
  62.1695795  18.5135414  17.0704949  62.2244404  17.5609250  16.9947425
  61.3586997  18.6694853  17.5546247  63.3186988  22.4415537   8.3083232
  62.8806418  21.7251396   7.8488869  64.0597429  22.6691652   7.7468323
  60.1088155  17.1312474  14.8295328  59.2956020  17.4306644  15.2360520
  60.6047149  16.7368163  15.5469810  62.2596732  27.1270231  16.7629592
  62.2172911  27.3531077  15.8338124  63.1759431  26.8933605  16.9115394
  65.7062366  17.5954298  23.6610222  66.0611754  17.8225771  24.5204687
  66.3534497  17.9272675  23.0387477  71.4360103  20.7172734  14.3659551
  71.2978002  20.9074330  13.4380740  71.0796322  21.4792117  14.8227602
  59.6002229  14.7030829  20.4456563  60.2401609  14.5619588  19.7479526
  58.7679760  14.4165343  20.0695165  71.4629483  22.7849261  19.3770822
  71.8965989  22.6924550  20.2253876  72.1761063  22.7606762  18.7390838
  60.3762533  24.0033260  16.5591555  61.1703132  23.5083580  16.3574130
  59.6654226  23.4751123  16.1959261  65.1957378  26.3851355  20.9103923
  65.2494400  26.9542292  21.6781639  64.3272159  26.5553240  20.5457960
  56.6845297  18.1476341  12.6351308  55.7542885  18.0860797  12.8521270
  56.7802769  17.6252294  11.8387949  56.6030846  14.6731154  15.2229549
  56.8637663  15.5876488  15.1138710  57.4248018  14.2055597  15.3726162
  58.0755771  16.0868911  22.3928374  58.7478824  15.8786274  21.7441023
  57.2485558  15.8890997  21.9533606  72.3245032  22.8272962  21.9103708
  72.5180922  23.7318772  22.1562982  72.2245650  22.3680381  22.7442293
  63.9781343  12.7130852  24.4094035  63.3309258  13.4120802  24.3158511
  64.7482358  13.1466996  24.7770283  67.3860141  22.9779705  27.4844588
  67.2345647  22.7490256  26.5674672  67.3764820  23.9350306  27.4975933
  64.1545477  20.5511617  22.4690855  65.0837537  20.7022777  22.2959822
  63.7336507  20.6395638  21.6139501  62.9533809  24.5762282  20.2389392
  62.8144895  24.2081066  21.1115330  62.1648405  25.0909921  20.0673350
  63.5481961  29.6771378  11.5814929  63.7233717  29.2059421  12.3960551
  62.8614749  30.3037144  11.8096189  64.5039024  23.9543884  17.6278230
  64.1688857  23.9144654  18.5235880  64.0042970  23.2888600  17.1548640
  58.4783268  19.3611514  23.1530811  58.3403066  18.6291753  23.7542350
  59.3888192  19.2720415  22.8714999  67.4398216  21.2999919   7.9015290
  66.8227387  20.5746747   7.8048342  66.9714704  22.0609279   7.5582364
  61.1065569  19.0731474  22.6414491  61.8165187  18.4324666  22.6001109
  61.0634877  19.3244369  23.5640672  69.0952348  26.0098827  25.5621070
  69.0364894  25.3258047  24.8951653  69.4971866  26.7517817  25.1101696
  59.8194503  16.0596692  24.4610130  59.2831860  15.6087430  25.1131727
  59.2311211  16.1942600  23.7180595  58.1143046  32.8260741  18.3554789
  58.3539645  33.4579265  19.0333807  57.2712243  32.4748781  18.6420148
  69.0969755  23.9738411  23.7935050  68.2096534  23.6364333  23.9161449
  69.6668306  23.2421442  24.0303815  50.7498902  20.3062503  17.1178101
  51.4369942  19.9924233  16.5299116  50.5947031  21.2103867  16.8445352
  55.5533624  15.1952699  21.5463125  55.4691813  14.5878369  20.8113535
  54.7316331  15.6861718  21.5472621  62.6270908  28.6339863  20.7596293
  62.5541080  29.4394835  21.2715597  62.1848301  28.8331829  19.9344314
  62.4160688  27.8711633  14.2699114  61.6328210  28.4133314  14.3637339
  63.1153433  28.3885613  14.6693356  65.7257338  13.6806263  16.9133320
  66.2226038  12.9276225  16.5934390  64.9544320  13.7170580  16.3476529
  73.5787095  19.3846628  18.5551611  73.5676972  20.2671344  18.1845544
  72.7104475  19.0318179  18.3606148  65.0869592  28.5326697  22.9154452
  65.7997564  29.1674162  22.8430353  64.5959620  28.6290563  22.0994453
  66.8087119  22.4377950  14.4871743  65.8743397  22.5579413  14.3176448
  66.9863787  21.5350417  14.2231753  62.3092307  15.8223646  16.6405004
  61.9390094  15.2694686  17.3285910  62.8051399  15.2181779  16.0880004
  70.1959670  18.2795269  15.0221777  70.6620122  19.1123261  14.9482080
  70.6467171  17.8140251  15.7267036  60.1381505  26.2821141  23.7360022
  60.8390965  26.9157624  23.8889417  59.6676620  26.6235872  22.9755662
  68.2635901  24.6239091  12.0207929  68.5395745  24.5095685  12.9301803
  67.3940400  24.2256576  11.9820102  68.1676333  10.6475856  19.0612679
  67.2539413  10.8780083  19.2294886  68.5969434  10.7314300  19.9126711
  67.9382791  18.8365748  21.5612573  67.2854242  19.0841656  20.9065025
  68.3163171  18.0229887  21.2275050  64.8989965  28.8725442  15.6640743
  65.0812360  28.0547097  16.1268495  65.7222951  29.0893134  15.2265633
  65.2332131  27.7993627  12.9255791  65.7619897  27.2886081  12.3125954
  65.4960350  27.4836157  13.7901325  63.9870364  19.5785559  28.0478610
  63.3111001  19.4779689  28.7180985  64.8097998  19.4224773  28.5114607
  55.7349223  25.8157496  20.6691125  56.3202660  25.0701184  20.8019029
  55.5374062  26.1261453  21.5527789  58.5887879  28.8508743  15.6853567
  57.9198254  29.3354871  15.2017607  58.4500748  29.0977964  16.5996946
  50.3266878  18.3863096  19.3895568  50.3650978  17.8526687  20.1832686
  49.8207171  17.8598302  18.7706545  62.7293147  30.8852487  22.2836226
  63.2811455  31.0484108  23.0485311  63.0699341  31.4756925  21.6116251
  57.7057640  13.2327637  22.8858110  57.7698967  14.0942468  22.4735508
  57.6424761  12.6201638  22.1530469  57.1809913  15.3050769  26.5331145
  57.8081952  14.9227847  27.1468669  56.3237832  15.0864971  26.8986837
  67.5804022  25.7113744  28.1384880  68.1243926  26.3243703  27.6439835
  66.9990866  26.2693323  28.6551893  65.8661534  28.8334462  19.2699908
  65.7412674  28.0324202  18.7610853  66.5240626  29.3280656  18.7813878
  57.4869703  15.1883195  18.4477048  56.7656288  15.8019163  18.3084521
  58.2762958  15.7240960  18.3693694  67.9296443  26.6343482  20.8979458
  66.9826778  26.5148834  20.8257785  68.2779216  25.7465981  20.9805719
  60.2896016  12.5237621  24.7217700  60.8130418  12.7699918  25.4844009
  60.0708350  13.3557656  24.3020837  64.9342876  26.4296199  17.0983810
  64.7867839  25.5012906  17.2791380  65.7596370  26.4516289  16.6140885
  58.8005120  15.0814266  12.9564302  59.1401193  15.6100187  12.2342911
  59.2477241  15.4194672  13.7322869  68.5376998  27.2524757  18.1848683
  69.4623545  27.0467619  18.0473134  68.3692301  27.0041159  19.0938024
  61.4948561  13.4651317  22.4067370  61.1545382  12.6659130  22.8088050
  60.7887568  13.7653027  21.8344204  62.1465033  10.5500629  20.8594693
  62.9691102  10.0761107  20.7373584  62.3903097  11.3291113  21.3593380
  64.9304390  14.2834036  12.0915927  65.1468005  15.1658674  11.7904756
  64.4498458  13.8920250  11.3621569  59.6703612  17.2419750  18.6686672
  59.5248193  17.5560053  19.5610954  59.1928815  17.8604650  18.1157571
  61.5299995  14.2322298  18.7167562  61.5161563  13.3363391  18.3799860
  62.2472423  14.2392961  19.3505848  63.3826125  14.6659638  20.7620689
  63.1243903  15.5876708  20.7605019  62.8511166  14.2690072  21.4521153
  68.3272314  27.7710425  13.5410774  68.5009192  27.2056847  12.7884627
  68.8201205  28.5711320  13.3590264  54.1449274  19.7825094  21.6074333
  53.6002742  20.5584902  21.7394608  55.0228624  20.1295898  21.4493455
  60.9336891  13.1136678  13.9855132  61.0552802  12.1853324  14.1846019
  60.6438933  13.1275364  13.0733447  63.8028081  10.7991588  17.1221852
  63.8249778  10.8630921  16.1673831  64.2196140   9.9596097  17.3162358
  74.1811705  20.5346848  15.1601074  74.6242851  19.7854173  14.7620197
  73.3038216  20.5256984  14.7774806  69.3147487  27.0877189  10.6407673
  70.0098391  27.7083882  10.8594987  69.6570637  26.2372540  10.9160051
  54.9315296  18.9094990  24.5004490  54.1897032  19.0577626  25.0869121
  54.6108040  19.1703256  23.6371240  71.2138910  24.5376895  12.1695004
  71.7390234  24.8764168  11.4444324  71.1261262  23.6023910  11.9858138
  62.8758959  28.4510968  24.2984880  63.1846085  28.2060115  25.1707580
  63.6734441  28.6557607  23.8103750  62.8979571  30.6048878  16.5290257
  62.4584561  30.1125257  17.2223113  63.6487688  30.0621846  16.2882332
  55.3771910  26.7960419  16.5314885  56.2029929  26.4964191  16.1513528
  55.0265962  26.0268041  16.9804673  60.3453443  26.1486887  18.6012558
  59.7233452  25.4857592  18.3014786  61.0158310  26.1748019  17.9186206
  53.5780515  24.7146745  17.4903818  52.7412423  24.2868920  17.3087820
  53.5504160  24.9079189  18.4274610  60.4177970  14.6268675  28.1945064
  60.4666126  15.5030798  27.8122834  60.9600484  14.0846068  27.6216708
  70.9032816  25.1709798  27.4746201  70.1128360  25.1533937  26.9350701
  70.6666170  25.7098092  28.2295238  71.0230691  22.0202265  24.7878930
  71.0728696  21.8552272  25.7294453  70.9144614  21.1529524  24.3976811
  59.9066950  24.6990811  12.0771019  60.0555070  25.3826275  11.4237692
  60.7133393  24.6795901  12.5920475  68.3134453  18.0033193  26.1038237
  69.2144316  17.8639658  25.8122235  68.3882428  18.1687648  27.0436414
  62.6477259  15.3800048  24.9491423  61.7780568  15.6733614  24.6774012
  62.8836739  15.9640493  25.6698687  72.5248888  24.4399206  25.0320952
  72.2333696  24.8029187  25.8684413  71.9121019  23.7266215  24.8534284
  73.7244570  22.0052086  17.5523522  74.5591461  22.4441890  17.7161082
  73.8603699  21.5290739  16.7331768  70.7736076  19.5631821  23.5001010
  71.2490198  19.7559467  22.6919861  69.8501641  19.6191007  23.2544393
  57.6619583  20.7255988  13.0832088  57.4165625  19.8218318  13.2812298
  57.8315497  20.7273139  12.1411566  65.3516292  11.5979665  22.4656843
  65.8698236  12.3340691  22.1403332  64.9971425  11.9043658  23.3003603
  65.6028887   8.0179947  17.9857740  65.8830640   7.3503136  18.6118167
  66.3879494   8.2109043  17.4732404  63.4062355  27.1938941   9.5482766
  62.8336322  27.8129128   9.0953238  63.9795149  27.7438303  10.0822688
  69.4737745  16.4397581  21.7329315  70.4255168  16.5395679  21.7541539
  69.3041195  15.6475850  22.2427399  67.4952124  13.5253164  21.9188716
  66.9002057  13.8058177  21.2235205  67.2101821  14.0147065  22.6905457
  66.6259615  27.4776091  10.6791349  67.5590288  27.4121653  10.8824224
  66.5382828  28.3132358  10.2205881  69.2547632  26.7941961   7.6395296
  69.1761263  26.4601825   8.5331054  70.0757298  27.2863729   7.6386769
  71.9525823  19.6603701  20.8471615  71.9202143  18.7219701  21.0331299
  72.5626446  19.7387737  20.1137440  72.1020311  16.4514744  20.8929898
  71.5859360  15.6673201  20.7059827  72.9860260  16.1233461  21.0576417
  69.7631038  10.1955760  16.8525711  69.5655859   9.8870848  17.7369043
  70.3730744  10.9217399  16.9823640  77.7702373  20.7219708  19.9877652
  78.5005761  20.4604996  20.5485355  77.1609318  19.9848430  20.0279720
  75.8517670  18.8627570  20.5852103  75.1250833  18.7283535  19.9768594
  75.4364957  19.1704399  21.3908821  63.6747846  22.5817500  28.3499476
  64.5950856  22.7596099  28.5439522  63.6397429  21.6373545  28.1979175
  52.8930011  17.7756094  17.2752750  52.5732796  16.9221402  16.9827124
  52.3463439  17.9904672  18.0310718  56.6709919  20.4918535  20.9922257
  56.8895929  21.4235642  21.0110291  57.0835693  20.1326509  21.7777061
  63.5914137  10.9986620  12.9797945  62.7814865  10.6533705  13.3553191
  64.2798553  10.6894164  13.5685557  65.5204685  10.0764667  14.6022242
  66.0735723  10.4960120  15.2612265  65.7574771   9.1500415  14.6445198
  61.5437784  16.0651740  30.3825006  61.4434511  17.0146097  30.3137097
  61.3259326  15.7369979  29.5101076  52.7618271  21.3959005  19.2445872
  52.0681743  20.9812958  18.7315826  53.5091262  21.4379542  18.6479291
  68.8983492  12.1865192  14.1100906  68.3182161  12.8449996  13.7278959
  68.6319425  11.3642536  13.6988324  67.3487058  11.5870249  16.3122227
  67.8486837  11.6986784  15.5036545  67.9922666  11.2831302  16.9523035
  61.4069054  19.4948879  29.1990068  60.9236136  20.2949239  29.4053957
  61.4929993  19.5056824  28.2457512  54.6755014  21.3277259  17.1211887
  54.6525702  21.4264946  16.1693770  54.9855650  22.1742410  17.4429053
  57.3342392  23.3853414  21.2358501  58.2885645  23.3537356  21.1688433
  57.1354915  22.9244038  22.0508727  57.9241774  21.9554530  23.8029299
  58.7434663  22.4498609  23.8264136  58.1978581  21.0386498  23.7746866
  67.6808370  14.3465282  13.1657255  66.7934225  14.6314933  12.9477449
  68.0962359  14.1859046  12.3184531  71.0322906  14.3711803  16.8811594
  71.8083296  14.8608256  17.1536211  70.3071040  14.7969857  17.3383463
  73.4695465  15.0839422  17.9385534  74.0639955  14.8435158  17.2278843
  73.5422048  14.3646553  18.5659071  55.6892620  28.9273033  18.2528699
  55.5547088  28.1673434  17.6866697  55.2724683  29.6513933  17.7857488
  66.8251583  24.1109957   7.2605274  67.5287434  24.3159959   7.8762930
  66.1014232  24.6786719   7.5254358  67.6549394  19.8619818  13.3807545
  67.5984595  20.3188370  12.5415177  68.2077736  19.1010503  13.2030387
  71.4654200  15.6509550  14.2057664  71.2091134  15.2506186  15.0365872
  70.8407068  16.3653344  14.0807803  75.7766537  18.3905623  16.7128956
  75.2166095  18.4598813  17.4860518  75.1710041  18.2146608  15.9928452
  58.8461746  29.8242350  18.4647142  58.7294130  30.7687783  18.3625832
  58.0254193  29.5215912  18.8532941  68.7338281  24.5492486   9.3103735
  69.5683885  24.1173685   9.1281209  68.5722624  24.3774500  10.2380629
  68.3884173  21.0524599  10.6760074  68.3332977  20.8868871   9.7348518
  67.7630228  21.7600632  10.8322264  53.1776688  16.2892664  24.5021496
  53.8235552  15.7791618  24.9908721  52.9693839  17.0261345  25.0764921
  65.7030080  23.3573511  30.0013637  66.5721240  23.5314163  29.6400272
  65.2236832  24.1767928  29.8789366  59.8716260  30.4770612  21.6803070
  60.7743507  30.5094222  21.9969565  59.6453630  29.5471063  21.6949406
  61.6269862  29.2301599  18.3413149  60.6765493  29.2303460  18.2277521
  61.9302349  28.4834333  17.8249184  65.5132418   7.1475485  14.5091329
  64.7464814   6.5933972  14.6548011  65.9243123   7.2197354  15.3705481
  57.5174179  13.4360281  28.5996510  58.3805641  13.0797086  28.8099835
  56.9439590  13.0974176  29.2871915  77.3622556  35.0662137  19.4058911
  78.0000966  34.9468885  18.7022251  77.2443399  36.0142981  19.4646863
  74.1712262  35.0189565  19.3420436  73.8330774  34.9030630  18.4540971
  75.0402030  34.6180730  19.3221442  70.0299078  36.8725042  15.3317327
  69.4663943  36.7814979  14.5633615  69.9151473  36.0524946  15.8119819
  74.6532045  36.1724417  25.3006642  74.6420686  35.7777215  24.4287145
  74.8152685  35.4390490  25.8940413  67.5763510  38.3676233  18.1701547
  68.3684802  38.0267058  17.7547847  67.8160160  38.4771208  19.0903701
  75.6098637  40.5396009  10.6431792  74.9586616  41.1250090  10.2565806
  76.4042999  41.0702204  10.7026829  69.5354264  37.6285147  11.0418926
  70.3085140  37.0814134  10.9031802  69.8879663  38.4929396  11.2533388
  71.3739306  38.9561529  24.2485825  71.0829172  39.8607160  24.1332492
  72.0096291  38.9978056  24.9629895  72.2995513  36.3338377  20.8387185
  72.8959085  36.1094400  20.1244148  72.3570485  35.5923123  21.4412633
  71.8720542  33.7877813   8.6737376  72.1246062  33.2659334   7.9120839
  70.9345101  33.6243958   8.7764060  76.9163824  32.7913591  16.4812119
  77.7026914  32.3733014  16.1302536  77.1802529  33.6959683  16.6493768
  77.0873902  38.2286441  11.1800776  76.4519735  38.3021068  11.8921681
  76.7571308  38.8180040  10.5019855  82.3172252  32.7288824  17.3845098
  83.0497423  32.1588041  17.6182927  81.5611607  32.3410425  17.8251603
  71.5916830  35.6905919  10.8761751  71.4753088  35.0150822  11.5442835
  71.7019090  35.2038293  10.0593904  73.9348371  35.1516066  14.5808440
  73.5706578  34.6246687  15.2921362  74.7915487  34.7614535  14.4074926
  79.8397672  26.4410398  21.8439706  79.5080997  27.3105809  21.6200921
  79.2443285  26.1246682  22.5233737  73.5753858  30.1805965   9.5769789
  73.7428261  31.0486202   9.9440260  73.3851027  30.3433247   8.6531078
  76.3329191  38.6422944  21.2435619  76.0329914  39.5447983  21.1351426
  75.9880251  38.3755128  22.0956772  69.7841673  35.0936741  17.2772324
  68.8592169  34.9612955  17.4850015  70.0326086  35.8730960  17.7742266
  79.7326335  31.1605484  18.9233056  78.8243213  31.0920893  18.6291817
  79.6813931  31.6377429  19.7514882  73.5543079  32.6363623  10.5616456
  73.4342704  33.0820674  11.4001936  72.8595667  32.9848941  10.0029994
  67.1450484  34.7370015  18.1116113  67.2742865  34.9904494  19.0255524
  66.4647935  35.3297723  17.7920768  71.3149971  45.4067265  14.2106587
  71.2374001  46.3575090  14.2895067  70.7111615  45.0613137  14.8681513
  73.8067201  32.5795130  26.8667954  73.0300535  33.1389050  26.8570818
  74.4457764  33.0651913  27.3882824  81.5987982  29.3621923  20.7010930
  80.9562362  29.6554456  20.0550725  81.0942910  29.2474843  21.5064127
  79.2528145  33.1085096  11.3896790  80.1646001  33.3412483  11.2144487
  78.7437792  33.6922140  10.8271868  72.0613573  35.3880583  26.4285921
  72.8028258  35.9265627  26.1520744  71.3550559  36.0146872  26.5857473
  77.5368913  37.5309724  25.0258082  77.9452269  37.0892134  24.2812715
  76.8146174  36.9562351  25.2792275  73.8899983  32.4682331  22.3991639
  74.7361178  32.8921744  22.5426288  73.8298621  31.8115955  23.0930202
  77.8597728  38.0910915  18.7810371  77.2306590  38.2556629  18.0786439
  77.4723390  38.5052524  19.5521335  81.7386959  39.0265352  16.1354735
  81.0537998  39.4064254  15.5851768  81.8230809  39.6360679  16.8686683
  77.0399428  30.1286699  24.0572813  76.7960360  30.8828760  23.5207089
  77.3159359  30.5072047  24.8920060  78.9937891  36.6725311  22.7350078
  79.2054786  37.3157071  22.0584460  78.9467639  35.8387628  22.2672009
  76.5964120  29.2843132  19.6386651  75.7348599  29.5824386  19.9303388
  76.6226555  29.5013531  18.7067683  73.4125689  37.8285323  16.0460456
  73.8764035  38.1073026  15.2565079  73.1482488  36.9268767  15.8633547
  70.3049770  37.3756804  18.9840219  70.8751128  37.8044073  18.3457704
  70.8957882  37.0939389  19.6824405  72.3494575  33.9508475  12.8550021
  73.0518619  34.4029519  13.3223948  72.0175204  33.3092294  13.4829915
  70.7974937  32.5420232  27.2301231  70.1673598  33.2236512  27.4636628
  70.6911025  32.4303313  26.2854369  66.0919909  32.2092028  18.1567155
  65.3018963  32.4649556  17.6807266  66.5831157  33.0240366  18.2619195
  80.1083719  39.5497267  20.9072436  80.9301163  39.1477454  20.6255117
  80.1046122  39.4465501  21.8588552  68.0434655  32.5736607  15.1150632
  67.2465818  32.6855301  15.6334127  67.8160247  32.9123259  14.2491522
  73.8740322  39.0981310  23.0633146  73.9384755  39.5601717  23.8991318
  73.1651246  38.4678675  23.1915456  64.3757612  32.4622518  20.5882146
  64.6265651  33.3469528  20.8539722  64.9117161  32.2827120  19.8157238
  88.1989712  35.8936015  17.2557407  87.4453420  35.3243413  17.1001412
  88.3337253  35.8598680  18.2028042  73.5888340  40.7649418  12.9312127
  73.4534015  41.6100953  13.3596974  74.1298153  40.9668695  12.1678060
  70.0755680  26.8440997  29.5926482  69.6822625  26.2907196  30.2674126
  70.8921820  27.1551576  29.9832999  67.0417737  38.2824856  13.5040052
  67.5542258  39.0768106  13.6545616  67.6940450  37.5851146  13.4373653
  68.8512622  41.3990612  15.5862805  69.0279251  42.3208577  15.3983789
  69.6469456  41.0849031  16.0157185  72.9923641  28.2598877  27.1846738
  73.7333354  28.8606030  27.1051201  73.2241564  27.5176514  26.6264781
  68.1364979  33.4455244  25.4624968  68.0218494  32.5440501  25.7632067
  67.2809496  33.6918941  25.1109785  75.2156816  41.3872984  27.0612469
  74.7720671  40.6009363  26.7433373  75.8774030  41.5752135  26.3956359
  69.9743938  42.9168786  21.5873147  70.5251363  42.7885849  20.8150141
  69.1355414  43.2163675  21.2368040  77.3138055  41.6675784  25.0893870
  77.2956530  42.4884665  24.5974139  78.2357975  41.5429859  25.3144011
  73.7711109  39.1819914  25.9317378  74.3039446  38.4208202  25.7016686
  73.2425190  38.8893565  26.6741533  76.9380804  24.2879979  21.4611020
  76.5945073  25.1781621  21.3850131  77.3059766  24.0981637  20.5980605
  65.0066654  36.6113510  14.2799622  65.8441876  37.0210518  14.0633330
  65.1844922  35.6712952  14.2499816  76.9031086  34.2788591   9.9683455
  76.3877710  35.0493195  10.2071843  76.6308395  33.6053727  10.5916517
  74.4878197  29.1238291  15.0268694  73.6319794  28.7345142  14.8474332
  74.9005149  29.2030252  14.1668479  76.0177344  26.6584635  19.4260253
  75.5142140  26.6214770  18.6128059  76.3107951  27.5677377  19.4856910
  72.2620230  26.7423364  18.4326435  73.1273227  26.5466173  18.0732325
  72.3297739  26.5133716  19.3595792  81.8765361  37.0320945  11.9036629
  81.0994803  36.6932105  11.4591791  82.5556841  37.0373568  11.2291594
  76.6917390  32.1515683  11.7943236  76.3867525  32.4661832  12.6453380
  77.6447832  32.2297103  11.8370569  75.1363821  38.3105906  13.4436190
  74.6085183  37.5758666  13.1309428  74.6351324  39.0880582  13.1976159
  80.1156667  36.5054926  18.5603237  79.4580342  37.1954188  18.6483365
  80.9197067  36.8951358  18.9037223  69.8682549  28.9725572  15.8042802
  70.4426301  28.7500754  15.0715995  70.4553531  29.0414267  16.5571403
  78.9262126  34.8599299  16.6107178  79.4394008  35.4929291  17.1128888
  79.5763350  34.2600495  16.2450538  70.1952136  31.0030033   9.8238687
  69.3589448  31.3404720  10.1447962  70.0556906  30.8679013   8.8865824
  72.1705217  25.8466821  14.5317871  71.5169629  25.5315838  13.9074486
  72.1285691  25.2242562  15.2577694  73.2816422  36.1286116   6.4471163
  72.3743483  35.8975370   6.6462312  73.7787454  35.3323736   6.6345145
  76.1884500  44.8383623   9.3667850  75.5146199  45.1415320   9.9752807
  76.5750322  45.6412704   9.0173307  75.4042957  32.3348755  18.8565519
  74.4865518  32.5563702  18.6987207  75.8203101  32.4095065  17.9977226
  76.1878005  33.7340170  13.9868199  76.9349824  34.2461568  13.6775321
  76.4569594  33.4124223  14.8472593  74.4604655  36.2298711  10.9695153
  73.5515874  35.9457744  11.0667623  74.4899739  36.6497790  10.1098460
  79.6923922  39.8405301  14.7386321  79.2386250  38.9996211  14.7951511
  79.0617889  40.4766699  15.0761101  78.6356842  30.7697287  15.9686988
  77.8979599  30.2574673  16.2997231  78.8883616  30.3297668  15.1570265
  78.1356862  41.6781797  15.6736139  78.4279836  42.2386854  14.9548505
  78.6455482  41.9710358  16.4289298  78.7368469  23.5473539  16.5628758
  79.0427346  22.6870902  16.2754673  79.4621074  24.1391159  16.3627752
  65.0292825  33.9504225  14.9510356  64.8317225  33.3573586  14.2261422
  64.4739489  33.6456435  15.6686294  73.0089549  33.8427332  17.0704949
  73.0638159  32.8901168  16.9947425  72.1980751  33.9986771  17.5546247
  74.1580743  37.7707455   8.3083232  73.7200173  37.0543314   7.8488869
  74.8991184  37.9983570   7.7468323  70.9481909  32.4604391  14.8295328
  70.1349775  32.7598562  15.2360520  71.4440903  32.0660080  15.5469810
  73.0990487  42.4562148  16.7629592  73.0566666  42.6822995  15.8338124
  74.0153186  42.2225523  16.9115394  76.5456121  32.9246216  23.6610222
  76.9005508  33.1517689  24.5204687  77.1928252  33.2564593  23.0387477
  82.2753858  36.0464652  14.3659551  82.1371756  36.2366248  13.4380740
  81.9190076  36.8084035  14.8227602  70.4395984  30.0322747  20.4456563
  71.0795363  29.8911506  19.7479526  69.6073514  29.7457260  20.0695165
  82.3023237  38.1141179  19.3770822  82.7359744  38.0216468  20.2253876
  83.0154818  38.0898679  18.7390838  71.2156288  39.3325177  16.5591555
  72.0096886  38.8375498  16.3574130  70.5047980  38.8043041  16.1959261
  76.0351132  41.7143273  20.9103923  76.0888154  42.2834209  21.6781639
  75.1665913  41.8845158  20.5457960  67.5239051  33.4768259  12.6351308
  66.5936639  33.4152715  12.8521270  67.6196523  32.9544212  11.8387949
  67.4424600  30.0023072  15.2229549  67.7031417  30.9168405  15.1138710
  68.2641772  29.5347515  15.3726162  68.9149526  31.4160829  22.3928374
  69.5872579  31.2078191  21.7441023  68.0879312  31.2182915  21.9533606
  83.1638787  38.1564880  21.9103708  83.3574677  39.0610690  22.1562982
  83.0639405  37.6972299  22.7442293  74.8175098  28.0422770  24.4094035
  74.1703013  28.7412720  24.3158511  75.5876113  28.4758914  24.7770283
  78.2253895  38.3071622  27.4844588  78.0739402  38.0782174  26.5674672
  78.2158575  39.2642224  27.4975933  74.9939232  35.8803535  22.4690855
  75.9231292  36.0314695  22.2959822  74.5730262  35.9687556  21.6139501
  73.7927564  39.9054199  20.2389392  73.6538649  39.5372984  21.1115330
  73.0042160  40.4201839  20.0673350  74.3875716  45.0063296  11.5814929
  74.5627471  44.5351339  12.3960551  73.7008504  45.6329062  11.8096189
  75.3432779  39.2835802  17.6278230  75.0082611  39.2436572  18.5235880
  74.8436724  38.6180518  17.1548640  69.3177023  34.6903432  23.1530811
  69.1796821  33.9583671  23.7542350  70.2281946  34.6012332  22.8714999
  78.2791970  36.6291836   7.9015290  77.6621141  35.9038665   7.8048342
  77.8108459  37.3901197   7.5582364  71.9459323  34.4023391  22.6414491
  72.6558942  33.7616584  22.6001109  71.9028632  34.6536286  23.5640672
  79.9346102  41.3390745  25.5621070  79.8758648  40.6549965  24.8951653
  80.3365620  42.0809735  25.1101696  70.6588257  31.3888609  24.4610130
  70.1225614  30.9379348  25.1131727  70.0704966  31.5234518  23.7180595
  68.9536801  48.1552659  18.3554789  69.1933399  48.7871183  19.0333807
  68.1105997  47.8040699  18.6420148  70.0690516  30.8477261   7.0236594
  69.1919983  30.7266062   6.6598841  70.5448269  30.0563339   6.7715483
  79.9363509  39.3030329  23.7935050  79.0490288  38.9656251  23.9161449
  80.5062060  38.5713360  24.0303815  61.5892656  35.6354420  17.1178101
  62.2763696  35.3216151  16.5299116  61.4340785  36.5395785  16.8445352
  66.3927379  30.5244617  21.5463125  66.3085567  29.9170287  20.8113535
  65.5710085  31.0153635  21.5472621  73.4664663  43.9631781  20.7596293
  73.3934834  44.7686753  21.2715597  73.0242056  44.1623747  19.9344314
  73.2554442  43.2003551  14.2699114  72.4721964  43.7425231  14.3637339
  73.9547188  43.7177531  14.6693356  76.5651093  29.0098181  16.9133320
  77.0619792  28.2568143  16.5934390  75.7938074  29.0462497  16.3476529
  84.4180850  34.7138546  18.5551611  84.4070726  35.5963262  18.1845544
  83.5498229  34.3610097  18.3606148  75.9263346  43.8618615  22.9154452
  76.6391318  44.4966080  22.8430353  75.4353375  43.9582481  22.0994453
  77.6480873  37.7669868  14.4871743  76.7137152  37.8871330  14.3176448
  77.8257542  36.8642335  14.2231753  73.1486061  31.1515564  16.6405004
  72.7783849  30.5986604  17.3285910  73.6445154  30.5473697  16.0880004
  81.0353425  33.6087187  15.0221777  81.5013877  34.4415179  14.9482080
  81.4860925  33.1432169  15.7267036  70.9775260  41.6113059  23.7360022
  71.6784719  42.2449542  23.8889417  70.5070375  41.9527790  22.9755662
  79.1029656  39.9531008  12.0207929  79.3789500  39.8387603  12.9301803
  78.2334154  39.5548493  11.9820102  79.0070087  25.9767774  19.0612679
  78.0933167  26.2072001  19.2294886  79.4363189  26.0606218  19.9126711
  78.7776546  34.1657666  21.5612573  78.1247996  34.4133573  20.9065025
  79.1556926  33.3521804  21.2275050  75.7383720  44.2017359  15.6640743
  75.9206114  43.3839015  16.1268495  76.5616706  44.4185051  15.2265633
  76.0725885  43.1285544  12.9255791  76.6013652  42.6177999  12.3125954
  76.3354105  42.8128075  13.7901325  74.8264119  34.9077477  28.0478610
  74.1504756  34.8071606  28.7180985  75.6491753  34.7516691  28.5114607
  66.5742978  41.1449414  20.6691125  67.1596415  40.3993102  20.8019029
  66.3767816  41.4553370  21.5527789  69.4281633  44.1800661  15.6853567
  68.7592008  44.6646789  15.2017607  69.2894503  44.4269881  16.5996946
  61.1660633  33.7155014  19.3895568  61.2044732  33.1818605  20.1832686
  60.6600925  33.1890219  18.7706545  73.5686902  46.2144405  22.2836226
  74.1205210  46.3776026  23.0485311  73.9093095  46.8048842  21.6116251
  68.5451395  28.5619554  22.8858110  68.6092721  29.4234385  22.4735508
  68.4818515  27.9493556  22.1530469  68.0203667  30.6342687  26.5331145
  68.6475706  30.2519764  27.1468669  67.1631586  30.4156889  26.8986837
  78.4197776  41.0405662  28.1384880  78.9637680  41.6535620  27.6439835
  77.8384621  41.5985240  28.6551893  64.7969210  32.4419116  12.4649500
  65.0922651  31.5329794  12.4116553  63.8957246  32.4206855  12.1430502
  76.7055289  44.1626380  19.2699908  76.5806428  43.3616120  18.7610853
  77.3634380  44.6572573  18.7813878  68.3263457  30.5175113  18.4477048
  67.6050043  31.1311080  18.3084521  69.1156713  31.0532877  18.3693694
  78.7690197  41.9635400  20.8979458  77.8220533  41.8440751  20.8257785
  79.1172970  41.0757898  20.9805719  71.1289771  27.8529539  24.7217700
  71.6524173  28.0991836  25.4844009  70.9102104  28.6849574  24.3020837
  66.5257052  30.1233214  12.5888825  66.1969758  29.2430593  12.4063931
  66.8796422  30.0680882  13.4765214  75.7736631  41.7588116  17.0983810
  75.6261593  40.8304824  17.2791380  76.5990124  41.7808207  16.6140885
  69.6398875  30.4106183  12.9564302  69.9794947  30.9392105  12.2342911
  70.0870995  30.7486590  13.7322869  79.3770752  42.5816675  18.1848683
  80.3017300  42.3759536  18.0473134  79.2086056  42.3333076  19.0938024
  72.3342316  28.7943234  22.4067370  71.9939136  27.9951047  22.8088050
  71.6281322  29.0944945  21.8344204  72.9858788  25.8792547  20.8594693
  73.8084857  25.4053025  20.7373584  73.2296851  26.6583030  21.3593380
  71.6267022  28.9080805  11.1557595  72.3475385  29.2862058  10.6521312
  71.0032326  29.6269682  11.2592573  75.7698145  29.6125954  12.0915927
  75.9861759  30.4950592  11.7904756  75.2892212  29.2212167  11.3621569
  70.5097366  32.5711667  18.6686672  70.3641947  32.8851970  19.5610954
  70.0322570  33.1896568  18.1157571  72.3693749  29.5614215  18.7167562
  72.3555318  28.6655309  18.3799860  73.0866177  29.5684879  19.3505848
  74.2219880  29.9951555  20.7620689  73.9637658  30.9168626  20.7605019
  73.6904920  29.5981990  21.4521153  79.1666069  43.1002343  13.5410774
  79.3402946  42.5348765  12.7884627  79.6594960  43.9003237  13.3590264
  64.9843029  35.1117012  21.6074333  64.4396497  35.8876820  21.7394608
  65.8622378  35.4587816  21.4493455  71.7730645  28.4428596  13.9855132
  71.8946556  27.5145242  14.1846019  71.4832688  28.4567281  13.0733447
  74.6421836  26.1283506  17.1221852  74.6643532  26.1922839  16.1673831
  75.0589895  25.2888015  17.3162358  85.0205460  35.8638765  15.1601074
  85.4636606  35.1146091  14.7620197  84.1431970  35.8548902  14.7774806
  80.1541241  42.4169107  10.6407673  80.8492146  43.0375800  10.8594987
  80.4964391  41.5664458  10.9160051  65.7709050  34.2386908  24.5004490
  65.0290786  34.3869543  25.0869121  65.4501795  34.4995174  23.6371240
  82.0532664  39.8668812  12.1695004  82.5783988  40.2056085  11.4444324
  81.9655017  38.9315828  11.9858138  73.7152713  43.7802886  24.2984880
  74.0239839  43.5352033  25.1707580  74.5128195  43.9849525  23.8103750
  73.7373325  45.9340796  16.5290257  73.2978315  45.4417174  17.2223113
  74.4881442  45.3913763  16.2882332  66.2165664  42.1252337  16.5314885
  67.0423684  41.8256108  16.1513528  65.8659716  41.3559959  16.9804673
  71.1847197  41.4778805  18.6012558  70.5627206  40.8149510  18.3014786
  71.8552064  41.5039937  17.9186206  64.4174269  40.0438663  17.4903818
  63.5806177  39.6160837  17.3087820  64.3897915  40.2371106  18.4274610
  71.2571725  29.9560593  28.1945064  71.3059880  30.8322716  27.8122834
  71.7994239  29.4137986  27.6216708  81.7426570  40.5001716  27.4746201
  80.9522114  40.4825855  26.9350701  81.5059925  41.0390010  28.2295238
  81.8624445  37.3494182  24.7878930  81.9122450  37.1844190  25.7294453
  81.7538369  36.4821442  24.3976811  70.7460704  40.0282728  12.0771019
  70.8948824  40.7118193  11.4237692  71.5527148  40.0087818  12.5920475
  79.1528208  33.3325111  26.1038237  80.0538071  33.1931575  25.8122235
  79.2276182  33.4979565  27.0436414  73.4871013  30.7091965  24.9491423
  72.6174323  31.0025531  24.6774012  73.7230494  31.2932410  25.6698687
  83.3642642  39.7691124  25.0320952  83.0727451  40.1321105  25.8684413
  82.7514774  39.0558132  24.8534284  84.5638325  37.3344004  17.5523522
  85.3985216  37.7733808  17.7161082  84.6997453  36.8582657  16.7331768
  81.6129831  34.8923739  23.5001010  82.0883952  35.0851385  22.6919861
  80.6895396  34.9482924  23.2544393  68.5013337  36.0547906  13.0832088
  68.2559379  35.1510236  13.2812298  68.6709252  36.0565056  12.1411566
  76.1910047  26.9271582  22.4656843  76.7091991  27.6632609  22.1403332
  75.8365180  27.2335575  23.3003603  67.7708985  31.7876263  10.5818249
  67.0778230  31.8620618   9.9258285  67.5260737  31.0236607  11.1039766
  76.4422641  23.3471865  17.9857740  76.7224395  22.6795054  18.6118167
  77.2273248  23.5400960  17.4732404  74.2456110  42.5230859   9.5482766
  73.6730077  43.1421046   9.0953238  74.8188903  43.0730220  10.0822688
  80.3131499  31.7689499  21.7329315  81.2648922  31.8687596  21.7541539
  80.1434950  30.9767767  22.2427399  78.3345879  28.8545082  21.9188716
  77.7395811  29.1350095  21.2235205  78.0495576  29.3438983  22.6905457
  77.4653369  42.8068009  10.6791349  78.3984043  42.7413570  10.8824224
  77.3776582  43.6424276  10.2205881  80.0941386  42.1233879   7.6395296
  80.0155018  41.7893743   8.5331054  80.9151053  42.6155647   7.6386769
  82.7919577  34.9895618  20.8471615  82.7595897  34.0511619  21.0331299
  83.4020201  35.0679655  20.1137440  74.6302908  33.8591671   6.8898819
  75.5762013  33.7297879   6.9587237  74.2517153  33.1206333   7.3668247
  82.9414066  31.7806662  20.8929898  82.4253114  30.9965118  20.7059827
  83.8254014  31.4525378  21.0576417  80.6024793  25.5247677  16.8525711
  80.4049614  25.2162766  17.7369043  81.2124498  26.2509316  16.9823640
  88.6096127  36.0511625  19.9877652  89.3399516  35.7896913  20.5485355
  88.0003073  35.3140347  20.0279720  86.6911424  34.1919488  20.5852103
  85.9644588  34.0575453  19.9768594  86.2758711  34.4996316  21.3908821
  74.5141601  37.9109418  28.3499476  75.4344610  38.0888017  28.5439522
  74.4791184  36.9665463  28.1979175  72.8145825  31.7841648   6.8253704
  71.9077281  31.4874760   6.9016418  73.0921806  31.4871466   5.9587990
  63.7323766  33.1048011  17.2752750  63.4126550  32.2513319  16.9827124
  63.1857194  33.3196589  18.0310718  67.5103673  35.8210452  20.9922257
  67.7289683  36.7527560  21.0110291  67.9229447  35.4618427  21.7777061
  74.4307891  26.3278537  12.9797945  73.6208619  25.9825622  13.3553191
  75.1192308  26.0186081  13.5685557  76.3598439  25.4056584  14.6022242
  76.9129478  25.8252038  15.2612265  76.5968526  24.4792332  14.6445198
  72.3831539  31.3943658  30.3825006  72.2828265  32.3438015  30.3137097
  72.1653081  31.0661897  29.5101076  71.5844610  28.6428583   6.9665683
  72.4463774  28.9683481   7.2261501  71.7694954  27.8560079   6.4538749
  63.6012026  36.7250923  19.2445872  62.9075497  36.3104875  18.7315826
  64.3485017  36.7671459  18.6479291  79.7377246  27.5157109  14.1100906
  79.1575915  28.1741913  13.7278959  79.4713179  26.6934454  13.6988324
  78.1880813  26.9162167  16.3122227  78.6880591  27.0278702  15.5036545
  78.8316421  26.6123220  16.9523035  72.2462809  34.8240797  29.1990068
  71.7629890  35.6241157  29.4053957  72.3323748  34.8348742  28.2457512
  65.5148768  36.6569176  17.1211887  65.4919456  36.7556864  16.1693770
  65.8249405  37.5034327  17.4429053  68.1736146  38.7145331  21.2358501
  69.1279400  38.6829274  21.1688433  67.9748670  38.2535955  22.0508727
  68.7635528  37.2846448  23.8029299  69.5828417  37.7790526  23.8264136
  69.0372336  36.3678416  23.7746866  78.5202124  29.6757200  13.1657255
  77.6327979  29.9606850  12.9477449  78.9356113  29.5150963  12.3184531
  81.8716661  29.7003721  16.8811594  82.6477051  30.1900173  17.1536211
  81.1464795  30.1261775  17.3383463  84.3089219  30.4131340  17.9385534
  84.9033710  30.1727076  17.2278843  84.3815803  29.6938471  18.5659071
  66.5286375  44.2564951  18.2528699  66.3940843  43.4965352  17.6866697
  66.1118437  44.9805851  17.7857488  77.6645338  39.4401875   7.2605274
  78.3681188  39.6451877   7.8762930  76.9407987  40.0078636   7.5254358
  78.4943148  35.1911736  13.3807545  78.4378350  35.6480287  12.5415177
  79.0471491  34.4302420  13.2030387  82.3047954  30.9801468  14.2057664
  82.0484888  30.5798103  15.0365872  81.6800822  31.6945262  14.0807803
  86.6160292  33.7197541  16.7128956  86.0559850  33.7890730  17.4860518
  86.0103795  33.5438526  15.9928452  69.6855501  45.1534268  18.4647142
  69.5687885  46.0979700  18.3625832  68.8647947  44.8507830  18.8532941
  79.5732035  39.8784404   9.3103735  80.4077639  39.4465602   9.1281209
  79.4116378  39.7066417  10.2380629  79.2277927  36.3816517  10.6760074
  79.1726731  36.2160788   9.7348518  78.6023983  37.0892550  10.8322264
  64.0170442  31.6184581  24.5021496  64.6629306  31.1083535  24.9908721
  63.8087594  32.3553263  25.0764921  76.5423835  38.6865429  30.0013637
  77.4114994  38.8606081  29.6400272  76.0630586  39.5059846  29.8789366
  72.5374053  25.8824626  10.2545392  72.5252723  26.8266466  10.4113663
  73.4297475  25.6994771   9.9604853  70.7110015  45.8062530  21.6803070
  71.6137262  45.8386140  21.9969565  70.4847385  44.8762981  21.6949406
  72.4663617  44.5593516  18.3413149  71.5159248  44.5595378  18.2277521
  72.7696103  43.8126251  17.8249184  76.3526172  22.4767403  14.5091329
  75.5858568  21.9225889  14.6548011  76.7636877  22.5489271  15.3705481
  68.3567933  28.7652198  28.5996510  69.2199395  28.4089003  28.8099835
  67.7833344  28.4266093  29.2871915  88.2016310  50.3954055  19.4058911
  88.8394720  50.2760802  18.7022251  88.0837153  51.3434899  19.4646863
  85.0106017  50.3481483  19.3420436  84.6724528  50.2322548  18.4540971
  85.8795785  49.9472648  19.3221442  80.8692832  52.2016959  15.3317327
  80.3057697  52.1106896  14.5633615  80.7545227  51.3816864  15.8119819
  85.4925800  51.5016335  25.3006642  85.4814440  51.1069133  24.4287145
  85.6546439  50.7682407  25.8940413  78.4157264  53.6968151  18.1701547
  79.2078556  53.3558976  17.7547847  78.6553914  53.8063126  19.0903701
  86.4492391  55.8687927  10.6431792  85.7980371  56.4542007  10.2565806
  87.2436754  56.3994122  10.7026829  80.3748018  52.9577064  11.0418926
  81.1478894  52.4106051  10.9031802  80.7273417  53.8221314  11.2533388
  82.2133061  54.2853446  24.2485825  81.9222927  55.1899077  24.1332492
  82.8490045  54.3269974  24.9629895  83.1389268  51.6630295  20.8387185
  83.7352840  51.4386317  20.1244148  83.1964239  50.9215040  21.4412633
  82.7114296  49.1169730   8.6737376  82.9639817  48.5951252   7.9120839
  81.7738855  48.9535876   8.7764060  87.7557579  48.1205509  16.4812119
  88.5420668  47.7024932  16.1302536  88.0196283  49.0251601  16.6493768
  87.9267656  53.5578359  11.1800776  87.2913489  53.6312985  11.8921681
  87.5965063  54.1471958  10.5019855  93.1566006  48.0580742  17.3845098
  93.8891178  47.4879959  17.6182927  92.4005362  47.6702342  17.8251603
  82.4310585  51.0197836  10.8761751  82.3146843  50.3442740  11.5442835
  82.5412845  50.5330210  10.0593904  84.7742126  50.4807983  14.5808440
  84.4100333  49.9538604  15.2921362  85.6309242  50.0906452  14.4074926
  90.6791426  41.7702316  21.8439706  90.3474751  42.6397727  21.6200921
  90.0837040  41.4538600  22.5233737  84.4147613  45.5097883   9.5769789
  84.5822015  46.3778119   9.9440260  84.2244782  45.6725165   8.6531078
  87.1722946  53.9714862  21.2435619  86.8723669  54.8739901  21.1351426
  86.8274005  53.7047045  22.0956772  80.6235427  50.4228659  17.2772324
  79.6985924  50.2904873  17.4850015  80.8719841  51.2022878  17.7742266
  90.5720090  46.4897402  18.9233056  89.6636967  46.4212811  18.6291817
  90.5207685  46.9669347  19.7514882  84.3936834  47.9655541  10.5616456
  84.2736459  48.4112591  11.4001936  83.6989422  48.3140858  10.0029994
  77.9844238  50.0661932  18.1116113  78.1136620  50.3196411  19.0255524
  77.3041690  50.6589640  17.7920768  82.1543726  60.7359182  14.2106587
  82.0767755  61.6867007  14.2895067  81.5505369  60.3905055  14.8681513
  84.6460955  47.9087048  26.8667954  83.8694290  48.4680968  26.8570818
  85.2851519  48.3943831  27.3882824  92.4381736  44.6913841  20.7010930
  91.7956116  44.9846374  20.0550725  91.9336665  44.5766761  21.5064127
  90.0921900  48.4377014  11.3896790  91.0039756  48.6704400  11.2144487
  89.5831547  49.0214058  10.8271868  82.9007328  50.7172501  26.4285921
  83.6422012  51.2557545  26.1520744  82.1944313  51.3438790  26.5857473
  88.3762667  52.8601642  25.0258082  88.7846023  52.4184052  24.2812715
  87.6539929  52.2854269  25.2792275  84.7293737  47.7974248  22.3991639
  85.5754933  48.2213662  22.5426288  84.6692375  47.1407873  23.0930202
  88.6991482  53.4202832  18.7810371  88.0700344  53.5848546  18.0786439
  88.3117144  53.8344442  19.5521335  92.5780714  54.3557270  16.1354735
  91.8931752  54.7356171  15.5851768  92.6624563  54.9652597  16.8686683
  87.8793183  45.4578617  24.0572813  87.6354115  46.2120677  23.5207089
  88.1553113  45.8363964  24.8920060  89.8331646  52.0017229  22.7350078
  90.0448541  52.6448989  22.0584460  89.7861394  51.1679546  22.2672009
  87.4357875  44.6135050  19.6386651  86.5742354  44.9116303  19.9303388
  87.4620309  44.8305449  18.7067683  84.2519444  53.1577240  16.0460456
  84.7157789  53.4364943  15.2565079  83.9876242  52.2560685  15.8633547
  81.1443525  52.7048722  18.9840219  81.7144882  53.1335990  18.3457704
  81.7351637  52.4231307  19.6824405  83.1888330  49.2800393  12.8550021
  83.8912373  49.7321436  13.3223948  82.8568958  48.6384212  13.4829915
  81.6368692  47.8712149  27.2301231  81.0067352  48.5528430  27.4636628
  81.5304779  47.7595231  26.2854369  76.9313664  47.5383945  18.1567155
  76.1412718  47.7941474  17.6807266  77.4224911  48.3532283  18.2619195
  90.9477473  54.8789184  20.9072436  91.7694917  54.4769372  20.6255117
  90.9439876  54.7757419  21.8588552  78.8828409  47.9028525  15.1150632
  78.0859573  48.0147219  15.6334127  78.6554002  48.2415177  14.2491522
  84.7134077  54.4273228  23.0633146  84.7778509  54.8893635  23.8991318
  84.0045001  53.7970593  23.1915456  75.2151367  47.7914436  20.5882146
  75.4659405  48.6761446  20.8539722  75.7510915  47.6119037  19.8157238
  99.0383467  51.2227933  17.2557407  98.2847175  50.6535331  17.1001412
  99.1731008  51.1890597  18.2028042  84.4282095  56.0941335  12.9312127
  84.2927769  56.9392871  13.3596974  84.9691907  56.2960613  12.1678060
  80.9149434  42.1732915  29.5926482  80.5216380  41.6199114  30.2674126
  81.7315575  42.4843494  29.9832999  77.8811492  53.6116773  13.5040052
  78.3936013  54.4060024  13.6545616  78.5334205  52.9143064  13.4373653
  79.6906377  56.7282530  15.5862805  79.8673005  57.6500494  15.3983789
  80.4863210  56.4140949  16.0157185  83.8317395  43.5890794  27.1846738
  84.5727109  44.1897947  27.1051201  84.0635318  42.8468432  26.6264781
  78.9758733  48.7747161  25.4624968  78.8612248  47.8732419  25.7632067
  78.1203251  49.0210858  25.1109785  86.0550571  56.7164902  27.0612469
  85.6114425  55.9301280  26.7433373  86.7167785  56.9044052  26.3956359
  80.8137692  58.2460703  21.5873147  81.3645117  58.1177767  20.8150141
  79.9749168  58.5455592  21.2368040  88.1531809  56.9967702  25.0893870
  88.1350284  57.8176583  24.5974139  89.0751729  56.8721777  25.3144011
  84.6104863  54.5111831  25.9317378  85.1433200  53.7500119  25.7016686
  84.0818944  54.2185483  26.6741533  87.7774558  39.6171897  21.4611020
  87.4338828  40.5073539  21.3850131  88.1453521  39.4273555  20.5980605
  75.8460409  51.9405428  14.2799622  76.6835631  52.3502436  14.0633330
  76.0238676  51.0004870  14.2499816  87.7424841  49.6080508   9.9683455
  87.2271464  50.3785113  10.2071843  87.4702149  48.9345644  10.5916517
  85.3271952  44.4530209  15.0268694  84.4713548  44.0637059  14.8474332
  85.7398904  44.5322170  14.1668479  86.8571099  41.9876552  19.4260253
  86.3535894  41.9506687  18.6128059  87.1501705  42.8969295  19.4856910
  83.1013984  42.0715282  18.4326435  83.9666981  41.8758091  18.0732325
  83.1691493  41.8425634  19.3595792  92.7159115  52.3612863  11.9036629
  91.9388558  52.0224022  11.4591791  93.3950596  52.3665486  11.2291594
  87.5311144  47.4807600  11.7943236  87.2261280  47.7953750  12.6453380
  88.4841586  47.5589020  11.8370569  85.9757576  53.6397824  13.4436190
  85.4478937  52.9050583  13.1309428  85.4745079  54.4172500  13.1976159
  90.9550422  51.8346844  18.5603237  90.2974096  52.5246106  18.6483365
  91.7590821  52.2243276  18.9037223  80.7076304  44.3017490  15.8042802
  81.2820055  44.0792671  15.0715995  81.2947286  44.3706184  16.5571403
  89.7655881  50.1891217  16.6107178  90.2787762  50.8221209  17.1128888
  90.4157105  49.5892412  16.2450538  81.0345891  46.3321951   9.8238687
  80.1983203  46.6696638  10.1447962  80.8950660  46.1970931   8.8865824
  83.0098971  41.1758739  14.5317871  82.3563384  40.8607756  13.9074486
  82.9679445  40.5534479  15.2577694  84.1210176  51.4578034   6.4471163
  83.2137238  51.2267287   6.6462312  84.6181208  50.6615653   6.6345145
  87.0278255  60.1675541   9.3667850  86.3539954  60.4707238   9.9752807
  87.4144077  60.9704621   9.0173307  86.2436712  47.6640672  18.8565519
  85.3259273  47.8855619  18.6987207  86.6596855  47.7386983  17.9977226
  87.0271759  49.0632088  13.9868199  87.7743578  49.5753485  13.6775321
  87.2963349  48.7416141  14.8472593  85.2998410  51.5590629  10.9695153
  84.3909629  51.2749662  11.0667623  85.3293493  51.9789707  10.1098460
  90.5317677  55.1697218  14.7386321  90.0780004  54.3288128  14.7951511
  89.9011644  55.8058617  15.0761101  89.4750596  46.0989204  15.9686988
  88.7373353  45.5866591  16.2997231  89.7277370  45.6589586  15.1570265
  88.9750616  57.0073715  15.6736139  89.2673591  57.5678772  14.9548505
  89.4849237  57.3002276  16.4289298  89.5762224  38.8765456  16.5628758
  89.8821101  38.0162820  16.2754673  90.3014829  39.4683077  16.3627752
  75.8686580  49.2796143  14.9510356  75.6710980  48.6865504  14.2261422
  75.3133244  48.9748353  15.6686294  83.8483304  49.1719249  17.0704949
  83.9031913  48.2193086  16.9947425  83.0374506  49.3278689  17.5546247
  84.9974497  53.0999372   8.3083232  84.5593927  52.3835231   7.8488869
  85.7384938  53.3275487   7.7468323  81.7875663  47.7896309  14.8295328
  80.9743529  48.0890480  15.2360520  82.2834658  47.3951998  15.5469810
  83.9384241  57.7854066  16.7629592  83.8960420  58.0114912  15.8338124
  84.8546940  57.5517441  16.9115394  87.3849875  48.2538134  23.6610222
  87.7399263  48.4809607  24.5204687  88.0322006  48.5856510  23.0387477
  93.1147612  51.3756570  14.3659551  92.9765511  51.5658165  13.4380740
  92.7583831  52.1375952  14.8227602  81.2789738  45.3614665  20.4456563
  81.9189118  45.2203424  19.7479526  80.4467269  45.0749178  20.0695165
  93.1416992  53.4433097  19.3770822  93.5753498  53.3508386  20.2253876
  93.8548572  53.4190597  18.7390838  82.0550042  54.6617095  16.5591555
  82.8490641  54.1667415  16.3574130  81.3441735  54.1334958  16.1959261
  86.8744887  57.0435191  20.9103923  86.9281909  57.6126127  21.6781639
  86.0059668  57.2137076  20.5457960  78.3632806  48.8060177  12.6351308
  77.4330394  48.7444632  12.8521270  78.4590278  48.2836130  11.8387949
  78.2818355  45.3314990  15.2229549  78.5425172  46.2460323  15.1138710
  79.1035527  44.8639432  15.3726162  79.7543280  46.7452747  22.3928374
  80.4266333  46.5370109  21.7441023  78.9273067  46.5474833  21.9533606
  94.0032541  53.4856797  21.9103708  94.1968431  54.3902608  22.1562982
  93.9033159  53.0264216  22.7442293  85.6568852  43.3714688  24.4094035
  85.0096767  44.0704637  24.3158511  86.4269867  43.8050832  24.7770283
  89.0647650  53.6363540  27.4844588  88.9133156  53.4074092  26.5674672
  89.0552329  54.5934141  27.4975933  85.8332986  51.2095453  22.4690855
  86.7625046  51.3606612  22.2959822  85.4124016  51.2979473  21.6139501
  84.6321318  55.2346117  20.2389392  84.4932404  54.8664901  21.1115330
  83.8435914  55.7493757  20.0673350  85.2269470  60.3355214  11.5814929
  85.4021226  59.8643257  12.3960551  84.5402258  60.9620980  11.8096189
  86.1826533  54.6127720  17.6278230  85.8476366  54.5728490  18.5235880
  85.6830479  53.9472436  17.1548640  80.1570777  50.0195350  23.1530811
  80.0190575  49.2875589  23.7542350  81.0675701  49.9304250  22.8714999
  89.1185725  51.9583754   7.9015290  88.5014896  51.2330582   7.8048342
  88.6502213  52.7193114   7.5582364  82.7853078  49.7315309  22.6414491
  83.4952696  49.0908501  22.6001109  82.7422386  49.9828204  23.5640672
  90.7739857  56.6682662  25.5621070  90.7152403  55.9841883  24.8951653
  91.1759375  57.4101652  25.1101696  81.4982012  46.7180527  24.4610130
  80.9619369  46.2671265  25.1131727  80.9098720  46.8526436  23.7180595
  79.7930555  63.4844576  18.3554789  80.0327154  64.1163100  19.0333807
  78.9499752  63.1332616  18.6420148  80.9084271  46.1769178   7.0236594
  80.0313737  46.0557979   6.6598841  81.3842024  45.3855257   6.7715483
  90.7757264  54.6322246  23.7935050  89.8884043  54.2948168  23.9161449
  91.3455815  53.9005278  24.0303815  72.4286411  50.9646338  17.1178101
  73.1157451  50.6508068  16.5299116  72.2734540  51.8687703  16.8445352
  77.2321133  45.8536535  21.5463125  77.1479322  45.2462204  20.8113535
  76.4103840  46.3445553  21.5472621  84.3058417  59.2923699  20.7596293
  84.2328589  60.0978670  21.2715597  83.8635810  59.4915665  19.9344314
  84.0948197  58.5295469  14.2699114  83.3115719  59.0717149  14.3637339
  84.7940942  59.0469448  14.6693356  87.4044847  44.3390098  16.9133320
  87.9013547  43.5860061  16.5934390  86.6331828  44.3754415  16.3476529
  95.2574604  50.0430464  18.5551611  95.2464481  50.9255179  18.1845544
  94.3891984  49.6902015  18.3606148  86.7657101  59.1910533  22.9154452
  87.4785073  59.8257998  22.8430353  86.2747129  59.2874399  22.0994453
  88.4874628  53.0961785  14.4871743  87.5530906  53.2163248  14.3176448
  88.6651296  52.1934252  14.2231753  83.9879816  46.4807481  16.6405004
  83.6177603  45.9278522  17.3285910  84.4838908  45.8765615  16.0880004
  91.8747179  48.9379105  15.0221777  92.3407631  49.7707096  14.9482080
  92.3254680  48.4724086  15.7267036  81.8169014  56.9404976  23.7360022
  82.5178474  57.5741459  23.8889417  81.3464129  57.2819708  22.9755662
  89.9423410  55.2822926  12.0207929  90.2183254  55.1679521  12.9301803
  89.0727909  54.8840411  11.9820102  89.8463842  41.3059692  19.0612679
  88.9326922  41.5363919  19.2294886  90.2756943  41.3898136  19.9126711
  89.6170300  49.4949584  21.5612573  88.9641751  49.7425491  20.9065025
  89.9950680  48.6813722  21.2275050  86.5777474  59.5309277  15.6640743
  86.7599869  58.7130933  16.1268495  87.4010460  59.7476969  15.2265633
  86.9119640  58.4577462  12.9255791  87.4407406  57.9469917  12.3125954
  87.1747859  58.1419992  13.7901325  85.6657873  50.2369395  28.0478610
  84.9898510  50.1363524  28.7180985  86.4885507  50.0808609  28.5114607
  77.4136732  56.4741331  20.6691125  77.9990169  55.7285019  20.8019029
  77.2161571  56.7845288  21.5527789  80.2675388  59.5092579  15.6853567
  79.5985763  59.9938706  15.2017607  80.1288257  59.7561799  16.5996946
  72.0054387  49.0446932  19.3895568  72.0438487  48.5110522  20.1832686
  71.4994680  48.5182137  18.7706545  84.4080656  61.5436322  22.2836226
  84.9598964  61.7067944  23.0485311  84.7486850  62.1340760  21.6116251
  79.3845149  43.8911472  22.8858110  79.4486476  44.7526303  22.4735508
  79.3212270  43.2785474  22.1530469  78.8597422  45.9634605  26.5331145
  79.4869461  45.5811682  27.1468669  78.0025341  45.7448806  26.8986837
  89.2591531  56.3697580  28.1384880  89.8031434  56.9827538  27.6439835
  88.6778375  56.9277158  28.6551893  75.6362965  47.7711034  12.4649500
  75.9316406  46.8621712  12.4116553  74.7351000  47.7498773  12.1430502
  87.5449043  59.4918298  19.2699908  87.4200183  58.6908038  18.7610853
  88.2028135  59.9864491  18.7813878  79.1657212  45.8467030  18.4477048
  78.4443797  46.4602998  18.3084521  79.9550467  46.3824795  18.3693694
  89.6083952  57.2927318  20.8979458  88.6614287  57.1732669  20.8257785
  89.9566725  56.4049816  20.9805719  81.9683525  43.1821457  24.7217700
  82.4917927  43.4283753  25.4844009  81.7495858  44.0141492  24.3020837
  77.3650806  45.4525131  12.5888825  77.0363512  44.5722510  12.4063931
  77.7190177  45.3972800  13.4765214  86.6130385  57.0880034  17.0983810
  86.4655348  56.1596741  17.2791380  87.4383879  57.1100125  16.6140885
  80.4792629  45.7398101  12.9564302  80.8188702  46.2684022  12.2342911
  80.9264750  46.0778507  13.7322869  90.2164507  57.9108593  18.1848683
  91.1411054  57.7051454  18.0473134  90.0479810  57.6624994  19.0938024
  83.1736070  44.1235152  22.4067370  82.8332891  43.3242965  22.8088050
  82.4675077  44.4236863  21.8344204  83.8252542  41.2084464  20.8594693
  84.6478611  40.7344942  20.7373584  84.0690606  41.9874948  21.3593380
  82.4660777  44.2372723  11.1557595  83.1869139  44.6153976  10.6521312
  81.8426081  44.9561600  11.2592573  86.6091899  44.9417872  12.0915927
  86.8255514  45.8242510  11.7904756  86.1285967  44.5504085  11.3621569
  81.3491121  47.9003585  18.6686672  81.2035702  48.2143888  19.5610954
  80.8716324  48.5188485  18.1157571  83.2087504  44.8906133  18.7167562
  83.1949072  43.9947226  18.3799860  83.9259932  44.8976797  19.3505848
  85.0613634  45.3243473  20.7620689  84.8031412  46.2460544  20.7605019
  84.5298675  44.9273908  21.4521153  90.0059823  58.4294260  13.5410774
  90.1796701  57.8640683  12.7884627  90.4988714  59.2295155  13.3590264
  75.8236783  50.4408929  21.6074333  75.2790251  51.2168737  21.7394608
  76.7016133  50.7879734  21.4493455  82.6124400  43.7720513  13.9855132
  82.7340311  42.8437159  14.1846019  82.3226442  43.7859199  13.0733447
  85.4815590  41.4575424  17.1221852  85.5037287  41.5214757  16.1673831
  85.8983649  40.6179932  17.3162358  95.8599214  51.1930683  15.1601074
  96.3030360  50.4438008  14.7620197  94.9825725  51.1840820  14.7774806
  90.9934996  57.7461025  10.6407673  91.6885900  58.3667717  10.8594987
  91.3358146  56.8956376  10.9160051  76.6102805  49.5678826  24.5004490
  75.8684541  49.7161461  25.0869121  76.2895549  49.8287091  23.6371240
  92.8926419  55.1960730  12.1695004  93.4177743  55.5348003  11.4444324
  92.8048771  54.2607745  11.9858138  84.5546467  59.1094804  24.2984880
  84.8633594  58.8643951  25.1707580  85.3521950  59.3141442  23.8103750
  84.5767080  61.2632713  16.5290257  84.1372070  60.7709092  17.2223113
  85.3275197  60.7205681  16.2882332  77.0559419  57.4544254  16.5314885
  77.8817438  57.1548026  16.1513528  76.7053471  56.6851877  16.9804673
  82.0240952  56.8070723  18.6012558  81.4020961  56.1441428  18.3014786
  82.6945819  56.8331854  17.9186206  75.2568024  55.3730581  17.4903818
  74.4199932  54.9452755  17.3087820  75.2291669  55.5663024  18.4274610
  82.0965479  45.2852511  28.1945064  82.1453635  46.1614633  27.8122834
  82.6387993  44.7429904  27.6216708  92.5820325  55.8293634  27.4746201
  91.7915869  55.8117773  26.9350701  92.3453679  56.3681927  28.2295238
  92.7018200  52.6786100  24.7878930  92.7516205  52.5136108  25.7294453
  92.5932123  51.8113359  24.3976811  81.5854459  55.3574646  12.0771019
  81.7342579  56.0410110  11.4237692  82.3920902  55.3379736  12.5920475
  89.9921962  48.6617028  26.1038237  90.8931825  48.5223493  25.8122235
  90.0669937  48.8271483  27.0436414  84.3264768  46.0383883  24.9491423
  83.4568077  46.3317449  24.6774012  84.5624248  46.6224328  25.6698687
  94.2036397  55.0983042  25.0320952  93.9121205  55.4613022  25.8684413
  93.5908528  54.3850050  24.8534284  95.4032079  52.6635921  17.5523522
  96.2378970  53.1025726  17.7161082  95.5391208  52.1874575  16.7331768
  92.4523585  50.2215656  23.5001010  92.9277707  50.4143303  22.6919861
  91.5289150  50.2774842  23.2544393  79.3407092  51.3839824  13.0832088
  79.0953134  50.4802153  13.2812298  79.5103006  51.3856974  12.1411566
  87.0303801  42.2563500  22.4656843  87.5485745  42.9924527  22.1403332
  86.6758934  42.5627493  23.3003603  78.6102739  47.1168181  10.5818249
  77.9171984  47.1912536   9.9258285  78.3654491  46.3528525  11.1039766
  87.2816396  38.6763782  17.9857740  87.5618149  38.0086971  18.6118167
  88.0667003  38.8692878  17.4732404  85.0849864  57.8522776   9.5482766
  84.5123831  58.4712963   9.0953238  85.6582658  58.4022138  10.0822688
  91.1525254  47.0981416  21.7329315  92.1042677  47.1979514  21.7541539
  90.9828704  46.3059685  22.2427399  89.1739633  44.1837000  21.9188716
  88.5789566  44.4642012  21.2235205  88.8889330  44.6730901  22.6905457
  88.3047124  58.1359926  10.6791349  89.2377797  58.0705488  10.8824224
  88.2170337  58.9716193  10.2205881  90.9335141  57.4525797   7.6395296
  90.8548772  57.1185660   8.5331054  91.7544807  57.9447565   7.6386769
  93.6313332  50.3187536  20.8471615  93.5989652  49.3803537  21.0331299
  94.2413955  50.3971573  20.1137440  85.4696663  49.1883589   6.8898819
  86.4155767  49.0589797   6.9587237  85.0910908  48.4498251   7.3668247
  93.7807820  47.1098580  20.8929898  93.2646869  46.3257036  20.7059827
  94.6647769  46.7817296  21.0576417  91.4418547  40.8539595  16.8525711
  91.2443368  40.5454683  17.7369043  92.0518253  41.5801234  16.9823640
  99.4489882  51.3803543  19.9877652 100.1793270  51.1188831  20.5485355
  98.8396827  50.6432265  20.0279720  97.5305179  49.5211406  20.5852103
  96.8038342  49.3867370  19.9768594  97.1152466  49.8288234  21.3908821
  85.3535355  53.2401335  28.3499476  86.2738365  53.4179934  28.5439522
  85.3184938  52.2957381  28.1979175  83.6539580  47.1133565   6.8253704
  82.7471035  46.8166678   6.9016418  83.9315561  46.8163384   5.9587990
  74.5717520  48.4339929  17.2752750  74.2520305  47.5805237  16.9827124
  74.0250948  48.6488507  18.0310718  78.3497428  51.1502370  20.9922257
  78.5683437  52.0819478  21.0110291  78.7623202  50.7910344  21.7777061
  85.2701646  41.6570455  12.9797945  84.4602374  41.3117540  13.3553191
  85.9586062  41.3477999  13.5685557  87.1992194  40.7348502  14.6022242
  87.7523232  41.1543955  15.2612265  87.4362280  39.8084250  14.6445198
  83.2225293  46.7235576  30.3825006  83.1222020  47.6729933  30.3137097
  83.0046835  46.3953815  29.5101076  82.4238364  43.9720501   6.9665683
  83.2857528  44.2975399   7.2261501  82.6088709  43.1851997   6.4538749
  74.4405780  52.0542840  19.2445872  73.7469252  51.6396793  18.7315826
  75.1878771  52.0963377  18.6479291  90.5771001  42.8449027  14.1100906
  89.9969670  43.5033831  13.7278959  90.3106934  42.0226372  13.6988324
  89.0274567  42.2454085  16.3122227  89.5274346  42.3570619  15.5036545
  89.6710175  41.9415138  16.9523035  83.0856563  50.1532714  29.1990068
  82.6023645  50.9533075  29.4053957  83.1717502  50.1640659  28.2457512
  76.3542523  51.9861094  17.1211887  76.3313211  52.0848781  16.1693770
  76.6643159  52.8326245  17.4429053  79.0129901  54.0437249  21.2358501
  79.9673154  54.0121191  21.1688433  78.8142424  53.5827873  22.0508727
  79.6029283  52.6138365  23.8029299  80.4222172  53.1082444  23.8264136
  79.8766090  51.6970333  23.7746866  89.3595879  45.0049118  13.1657255
  88.4721734  45.2898768  12.9477449  89.7749868  44.8442881  12.3184531
  92.7110415  45.0295638  16.8811594  93.4870805  45.5192091  17.1536211
  91.9858549  45.4553693  17.3383463  95.1482974  45.7423258  17.9385534
  95.7427464  45.5018994  17.2278843  95.2209557  45.0230388  18.5659071
  77.3680129  59.5856869  18.2528699  77.2334597  58.8257270  17.6866697
  76.9512192  60.3097769  17.7857488  88.5039092  54.7693792   7.2605274
  89.2074942  54.9743795   7.8762930  87.7801741  55.3370554   7.5254358
  89.3336903  50.5203653  13.3807545  89.2772104  50.9772205  12.5415177
  89.8865245  49.7594338  13.2030387  93.1441709  46.3093385  14.2057664
  92.8878643  45.9090021  15.0365872  92.5194577  47.0237179  14.0807803
  97.4554046  49.0489459  16.7128956  96.8953604  49.1182648  17.4860518
  96.8497550  48.8730443  15.9928452  80.5249255  60.4826186  18.4647142
  80.4081639  61.4271618  18.3625832  79.7041702  60.1799747  18.8532941
  90.4125790  55.2076321   9.3103735  91.2471394  54.7757520   9.1281209
  90.2510133  55.0358335  10.2380629  90.0671682  51.7108435  10.6760074
  90.0120486  51.5452706   9.7348518  89.4417737  52.4184468  10.8322264
  74.8564197  46.9476499  24.5021496  75.5023061  46.4375453  24.9908721
  74.6481348  47.6845181  25.0764921  87.3817589  54.0157347  30.0013637
  88.2508749  54.1897999  29.6400272  86.9024341  54.8351763  29.8789366
  83.3767807  41.2116544  10.2545392  83.3646477  42.1558384  10.4113663
  84.2691229  41.0286689   9.9604853  81.5503769  61.1354448  21.6803070
  82.4531016  61.1678058  21.9969565  81.3241139  60.2054899  21.6949406
  83.3057371  59.8885434  18.3413149  82.3553002  59.8887296  18.2277521
  83.6089858  59.1418169  17.8249184  87.1919927  37.8059320  14.5091329
  86.4252323  37.2517807  14.6548011  87.6030632  37.8781189  15.3705481
  79.1961688  44.0944116  28.5996510  80.0593150  43.7380921  28.8099835
  78.6227099  43.7558011  29.2871915  99.0410065  65.7245973  19.4058911
  99.6788475  65.6052720  18.7022251  98.9230908  66.6726816  19.4646863
  95.8499771  65.6773401  19.3420436  95.5118283  65.5614465  18.4540971
  96.7189539  65.2764566  19.3221442  91.7086587  67.5308877  15.3317327
  91.1451452  67.4398814  14.5633615  91.5938982  66.7108781  15.8119819
  96.3319554  66.8308252  25.3006642  96.3208195  66.4361051  24.4287145
  96.4940194  66.0974325  25.8940413  89.2551019  69.0260069  18.1701547
  90.0472311  68.6850893  17.7547847  89.4947669  69.1355044  19.0903701
  91.2141773  68.2868982  11.0418926  91.9872649  67.7397969  10.9031802
  91.5667172  69.1513231  11.2533388  93.0526815  69.6145364  24.2485825
  92.7616681  70.5190995  24.1332492  93.6883800  69.6561892  24.9629895
  93.9783022  66.9922213  20.8387185  94.5746594  66.7678235  20.1244148
  94.0357994  66.2506958  21.4412633  93.5508051  64.4461648   8.6737376
  93.8033571  63.9243169   7.9120839  92.6132610  64.2827793   8.7764060
  98.5951333  63.4497426  16.4812119  99.3814423  63.0316850  16.1302536
  98.8590038  64.3543519  16.6493768  98.7661411  68.8870277  11.1800776
  98.1307244  68.9604903  11.8921681  98.4358817  69.4763875  10.5019855
 103.9959760  63.3872660  17.3845098 104.7284932  62.8171876  17.6182927
 103.2399116  62.9994260  17.8251603  93.2704339  66.3489754  10.8761751
  93.1540597  65.6734657  11.5442835  93.3806599  65.8622128  10.0593904
  95.6135880  65.8099901  14.5808440  95.2494087  65.2830522  15.2921362
  96.4702996  65.4198370  14.4074926 101.5185181  57.0994234  21.8439706
 101.1868506  57.9689645  21.6200921 100.9230794  56.7830518  22.5233737
  95.2541367  60.8389801   9.5769789  95.4215770  61.7070037   9.9440260
  95.0638536  61.0017082   8.6531078  98.0116700  69.3006780  21.2435619
  97.7117423  70.2031818  21.1351426  97.6667760  69.0338963  22.0956772
  91.4629182  65.7520576  17.2772324  90.5379678  65.6196791  17.4850015
  91.7113595  66.5314796  17.7742266 101.4113844  61.8189320  18.9233056
 100.5030721  61.7504728  18.6291817 101.3601440  62.2961265  19.7514882
  95.2330588  63.2947458  10.5616456  95.1130213  63.7404509  11.4001936
  94.5383176  63.6432776  10.0029994  88.8237993  65.3953850  18.1116113
  88.9530374  65.6488329  19.0255524  88.1435444  65.9881558  17.7920768
  92.9937480  76.0651100  14.2106587  92.9161510  77.0158925  14.2895067
  92.3899124  75.7196972  14.8681513  95.4854710  63.2378965  26.8667954
  94.7088044  63.7972886  26.8570818  96.1245273  63.7235748  27.3882824
 103.2775491  60.0205758  20.7010930 102.6349871  60.3138291  20.0550725
 102.7730419  59.9058679  21.5064127 100.9315654  63.7668931  11.3896790
 101.8433510  63.9996318  11.2144487 100.4225301  64.3505976  10.8271868
  93.7401082  66.0464419  26.4285921  94.4815767  66.5849463  26.1520744
  93.0338068  66.6730708  26.5857473  99.2156422  68.1893559  25.0258082
  99.6239778  67.7475970  24.2812715  98.4933683  67.6146187  25.2792275
  95.5687492  63.1266166  22.3991639  96.4148687  63.5505580  22.5426288
  95.5086130  62.4699790  23.0930202  99.5385237  68.7494750  18.7810371
  98.9094099  68.9140464  18.0786439  99.1510899  69.1636359  19.5521335
 103.4174468  69.6849188  16.1354735 102.7325507  70.0648089  15.5851768
 103.5018318  70.2944514  16.8686683  98.7186937  60.7870534  24.0572813
  98.4747869  61.5412595  23.5207089  98.9946868  61.1655882  24.8920060
 100.6725400  67.3309147  22.7350078 100.8842295  67.9740907  22.0584460
 100.6255148  66.4971463  22.2672009  98.2751629  59.9426967  19.6386651
  97.4136108  60.2408221  19.9303388  98.3014064  60.1597366  18.7067683
  95.0913198  68.4869158  16.0460456  95.5551544  68.7656861  15.2565079
  94.8269997  67.5852603  15.8633547  91.9837279  68.0340640  18.9840219
  92.5538637  68.4627908  18.3457704  92.5745391  67.7523224  19.6824405
  94.0282084  64.6092310  12.8550021  94.7306128  65.0613354  13.3223948
  93.6962713  63.9676129  13.4829915  92.4762446  63.2004067  27.2301231
  91.8461107  63.8820348  27.4636628  92.3698534  63.0887149  26.2854369
  87.7707418  62.8675863  18.1567155  86.9806472  63.1233392  17.6807266
  88.2618666  63.6824201  18.2619195 101.7871228  70.2081102  20.9072436
 102.6088672  69.8061289  20.6255117 101.7833631  70.1049336  21.8588552
  89.7222164  63.2320442  15.1150632  88.9253327  63.3439136  15.6334127
  89.4947756  63.5707094  14.2491522  95.5527831  69.7565145  23.0633146
  95.6172264  70.2185553  23.8991318  94.8438755  69.1262510  23.1915456
  86.0545121  63.1206353  20.5882146  86.3053160  64.0053363  20.8539722
  86.5904670  62.9410955  19.8157238 109.8777221  66.5519851  17.2557407
 109.1240929  65.9827249  17.1001412 110.0124762  66.5182515  18.2028042
  95.2675849  71.4233253  12.9312127  95.1321524  72.2684789  13.3596974
  95.8085662  71.6252531  12.1678060  91.7543189  57.5024833  29.5926482
  91.3610134  56.9491031  30.2674126  92.5709329  57.8135411  29.9832999
  88.7205246  68.9408691  13.5040052  89.2329767  69.7351941  13.6545616
  89.3727959  68.2434981  13.4373653  90.5300131  72.0574447  15.5862805
  90.7066760  72.9792412  15.3983789  91.3256965  71.7432866  16.0157185
  94.6711150  58.9182712  27.1846738  95.4120863  59.5189865  27.1051201
  94.9029073  58.1760350  26.6264781  89.8152488  64.1039079  25.4624968
  89.7006003  63.2024336  25.7632067  88.9597005  64.3502776  25.1109785
  96.8944325  72.0456819  27.0612469  96.4508180  71.2593198  26.7433373
  97.5561539  72.2335970  26.3956359  91.6531447  73.5752621  21.5873147
  92.2038872  73.4469684  20.8150141  90.8142923  73.8747510  21.2368040
  98.9925564  72.3259619  25.0893870  98.9744039  73.1468500  24.5974139
  99.9145484  72.2013695  25.3144011  95.4498618  69.8403749  25.9317378
  95.9826954  69.0792037  25.7016686  94.9212699  69.5477401  26.6741533
  98.6168313  54.9463815  21.4611020  98.2732582  55.8365457  21.3850131
  98.9847275  54.7565472  20.5980605  86.6854163  67.2697345  14.2799622
  87.5229385  67.6794354  14.0633330  86.8632431  66.3296787  14.2499816
  98.5818595  64.9372426   9.9683455  98.0665219  65.7077031  10.2071843
  98.3095904  64.2637562  10.5916517  96.1665706  59.7822127  15.0268694
  95.3107303  59.3928977  14.8474332  96.5792658  59.8614088  14.1668479
  97.6964853  57.3168470  19.4260253  97.1929649  57.2798605  18.6128059
  97.9895460  58.2261213  19.4856910  93.9407739  57.4007200  18.4326435
  94.8060736  57.2050008  18.0732325  94.0085248  57.1717551  19.3595792
  98.3704899  62.8099518  11.7943236  98.0655034  63.1245667  12.6453380
  99.3235341  62.8880938  11.8370569  96.8151330  68.9689741  13.4436190
  96.2872692  68.2342501  13.1309428  96.3138833  69.7464418  13.1976159
 101.7944176  67.1638762  18.5603237 101.1367851  67.8538023  18.6483365
 102.5984576  67.5535194  18.9037223  91.5470058  59.6309408  15.8042802
  92.1213810  59.4084589  15.0715995  92.1341040  59.6998102  16.5571403
 100.6049635  65.5183135  16.6107178 101.1181517  66.1513126  17.1128888
 101.2550859  64.9184330  16.2450538  91.8739645  61.6613869   9.8238687
  91.0376957  61.9988555  10.1447962  91.7344415  61.5262848   8.8865824
  93.8492726  56.5050657  14.5317871  93.1957138  56.1899674  13.9074486
  93.8073200  55.8826397  15.2577694  97.0830466  62.9932590  18.8565519
  96.1653027  63.2147537  18.6987207  97.4990610  63.0678901  17.9977226
  97.8665514  64.3924006  13.9868199  98.6137333  64.9045403  13.6775321
  98.1357103  64.0708058  14.8472593  96.1392164  66.8882546  10.9695153
  95.2303383  66.6041579  11.0667623  96.1687248  67.3081625  10.1098460
 101.3711431  70.4989136  14.7386321 100.9173759  69.6580046  14.7951511
 100.7405398  71.1350534  15.0761101 100.3144351  61.4281122  15.9686988
  99.5767108  60.9158508  16.2997231 100.5671125  60.9881504  15.1570265
  99.8144371  72.3365633  15.6736139 100.1067345  72.8970690  14.9548505
 100.3242991  72.6294194  16.4289298 100.4155978  54.2057374  16.5628758
 100.7214855  53.3454737  16.2754673 101.1408583  54.7974994  16.3627752
  86.7080334  64.6088061  14.9510356  86.5104734  64.0157421  14.2261422
  86.1526998  64.3040271  15.6686294  94.6877058  64.5011167  17.0704949
  94.7425668  63.5485003  16.9947425  93.8768260  64.6570606  17.5546247
  92.6269418  63.1188227  14.8295328  91.8137284  63.4182397  15.2360520
  93.1228412  62.7243916  15.5469810  94.7777996  73.1145984  16.7629592
  94.7354175  73.3406830  15.8338124  95.6940695  72.8809358  16.9115394
  98.2243630  63.5830051  23.6610222  98.5793017  63.8101524  24.5204687
  98.8715761  63.9148428  23.0387477 103.9541367  66.7048487  14.3659551
 103.8159265  66.8950083  13.4380740 103.5977585  67.4667870  14.8227602
  92.1183493  60.6906582  20.4456563  92.7582872  60.5495341  19.7479526
  91.2861023  60.4041096  20.0695165 103.9810746  68.7725014  19.3770822
 104.4147253  68.6800303  20.2253876 104.6942327  68.7482515  18.7390838
  92.8943797  69.9909013  16.5591555  93.6884395  69.4959333  16.3574130
  92.1835489  69.4626876  16.1959261  97.7138641  72.3727108  20.9103923
  97.7675663  72.9418045  21.6781639  96.8453422  72.5428993  20.5457960
  89.2026560  64.1352095  12.6351308  88.2724148  64.0736550  12.8521270
  89.2984032  63.6128047  11.8387949  89.1212109  60.6606907  15.2229549
  89.3818926  61.5752241  15.1138710  89.9429281  60.1931350  15.3726162
  90.5937034  62.0744665  22.3928374  91.2660088  61.8662027  21.7441023
  89.7666821  61.8766751  21.9533606 104.8426296  68.8148715  21.9103708
 105.0362186  69.7194525  22.1562982 104.7426914  68.3556134  22.7442293
  96.4962606  58.7006605  24.4094035  95.8490522  59.3996555  24.3158511
  97.2663622  59.1342749  24.7770283  99.9041404  68.9655458  27.4844588
  99.7526911  68.7366009  26.5674672  99.8946084  69.9226059  27.4975933
  96.6726741  66.5387370  22.4690855  97.6018801  66.6898530  22.2959822
  96.2517771  66.6271391  21.6139501  95.4715073  70.5638035  20.2389392
  95.3326158  70.1956819  21.1115330  94.6829669  71.0785674  20.0673350
  97.0220288  69.9419637  17.6278230  96.6870120  69.9020407  18.5235880
  96.5224233  69.2764353  17.1548640  90.9964532  65.3487267  23.1530811
  90.8584330  64.6167506  23.7542350  91.9069455  65.2596168  22.8714999
  93.6246832  65.0607227  22.6414491  94.3346451  64.4200419  22.6001109
  93.5816141  65.3120122  23.5640672 101.6133611  71.9974580  25.5621070
 101.5546157  71.3133800  24.8951653 102.0153129  72.7393570  25.1101696
  92.3375766  62.0472445  24.4610130  91.8013123  61.5963183  25.1131727
  91.7492475  62.1818354  23.7180595  90.6324310  78.8136494  18.3554789
  90.8720908  79.4455018  19.0333807  89.7893506  78.4624534  18.6420148
  91.7478025  61.5061096   7.0236594  90.8707492  61.3849897   6.6598841
  92.2235778  60.7147174   6.7715483 101.6151018  69.9614164  23.7935050
 100.7277797  69.6240086  23.9161449 102.1849569  69.2297195  24.0303815
  83.2680165  66.2938256  17.1178101  83.9551205  65.9799986  16.5299116
  83.1128294  67.1979620  16.8445352  88.0714888  61.1828452  21.5463125
  87.9873076  60.5754122  20.8113535  87.2497594  61.6737471  21.5472621
  95.1452172  74.6215616  20.7596293  95.0722343  75.4270588  21.2715597
  94.7029565  74.8207582  19.9344314  94.9341951  73.8587386  14.2699114
  94.1509473  74.4009067  14.3637339  95.6334697  74.3761366  14.6693356
  98.2438601  59.6682016  16.9133320  98.7407301  58.9151978  16.5934390
  97.4725583  59.7046333  16.3476529 106.0968359  65.3722381  18.5551611
 106.0858235  66.2547097  18.1845544 105.2285738  65.0193932  18.3606148
  97.6050855  74.5202450  22.9154452  98.3178827  75.1549915  22.8430353
  97.1140884  74.6166316  22.0994453  99.3268382  68.4253703  14.4871743
  98.3924661  68.5455166  14.3176448  99.5045051  67.5226170  14.2231753
  94.8273570  61.8099399  16.6405004  94.4571358  61.2570439  17.3285910
  95.3232663  61.2057532  16.0880004 102.7140934  64.2671022  15.0221777
 103.1801386  65.0999014  14.9482080 103.1648434  63.8016004  15.7267036
  92.6562769  72.2696894  23.7360022  93.3572228  72.9033377  23.8889417
  92.1857884  72.6111625  22.9755662 100.7817165  70.6114844  12.0207929
 101.0577009  70.4971438  12.9301803  99.9121663  70.2132329  11.9820102
 100.6857596  56.6351609  19.0612679  99.7720676  56.8655836  19.2294886
 101.1150698  56.7190053  19.9126711 100.4564055  64.8241501  21.5612573
  99.8035505  65.0717409  20.9065025 100.8344435  64.0105640  21.2275050
  97.4171229  74.8601195  15.6640743  97.5993623  74.0422850  16.1268495
  98.2404215  75.0768887  15.2265633  97.7513394  73.7869380  12.9255791
  98.2801161  73.2761834  12.3125954  98.0141614  73.4711910  13.7901325
  96.5051628  65.5661312  28.0478610  95.8292265  65.4655442  28.7180985
  97.3279262  65.4100526  28.5114607  88.2530487  71.8033249  20.6691125
  88.8383924  71.0576937  20.8019029  88.0555325  72.1137206  21.5527789
  91.1069142  74.8384496  15.6853567  90.4379517  75.3230624  15.2017607
  90.9682012  75.0853717  16.5996946  82.8448142  64.3738849  19.3895568
  82.8832241  63.8402440  20.1832686  82.3388434  63.8474055  18.7706545
  95.2474411  76.8728240  22.2836226  95.7992719  77.0359861  23.0485311
  95.5880604  77.4632678  21.6116251  90.2238904  59.2203390  22.8858110
  90.2880230  60.0818221  22.4735508  90.1606024  58.6077391  22.1530469
  89.6991176  61.2926522  26.5331145  90.3263215  60.9103600  27.1468669
  88.8419095  61.0740724  26.8986837 100.0985285  71.6989497  28.1384880
 100.6425189  72.3119456  27.6439835  99.5172130  72.2569076  28.6551893
  86.4756719  63.1002951  12.4649500  86.7710160  62.1913630  12.4116553
  85.5744755  63.0790691  12.1430502  98.3842798  74.8210215  19.2699908
  98.2593937  74.0199955  18.7610853  99.0421889  75.3156409  18.7813878
  90.0050966  61.1758948  18.4477048  89.2837552  61.7894916  18.3084521
  90.7944222  61.7116713  18.3693694 100.4477706  72.6219236  20.8979458
  99.5008042  72.5024587  20.8257785 100.7960479  71.7341734  20.9805719
  92.8077280  58.5113374  24.7217700  93.3311682  58.7575671  25.4844009
  92.5889613  59.3433409  24.3020837  88.2044561  60.7817049  12.5888825
  87.8757267  59.9014428  12.4063931  88.5583931  60.7264718  13.4765214
  97.4524140  72.4171952  17.0983810  97.3049102  71.4888659  17.2791380
  98.2777633  72.4392042  16.6140885  91.3186384  61.0690019  12.9564302
  91.6582456  61.5975940  12.2342911  91.7658504  61.4070425  13.7322869
 101.0558261  73.2400510  18.1848683 101.9804809  73.0343372  18.0473134
 100.8873565  72.9916912  19.0938024  94.0129825  59.4527070  22.4067370
  93.6726645  58.6534883  22.8088050  93.3068831  59.7528780  21.8344204
  94.6646297  56.5376382  20.8594693  95.4872366  56.0636860  20.7373584
  94.9084360  57.3166866  21.3593380  93.3054531  59.5664640  11.1557595
  94.0262894  59.9445893  10.6521312  92.6819835  60.2853517  11.2592573
  97.4485654  60.2709789  12.0915927  97.6649268  61.1534427  11.7904756
  96.9679721  59.8796003  11.3621569  92.1884875  63.2295503  18.6686672
  92.0429456  63.5435806  19.5610954  91.7110079  63.8480403  18.1157571
  94.0481258  60.2198051  18.7167562  94.0342827  59.3239144  18.3799860
  94.7653686  60.2268714  19.3505848  95.9007389  60.6535391  20.7620689
  95.6425167  61.5752461  20.7605019  95.3692429  60.2565825  21.4521153
  86.6630537  65.7700847  21.6074333  86.1184006  66.5460655  21.7394608
  87.5409887  66.1171651  21.4493455  93.4518154  59.1012431  13.9855132
  93.5734065  58.1729077  14.1846019  93.1620197  59.1151117  13.0733447
  96.3209345  56.7867341  17.1221852  96.3431041  56.8506674  16.1673831
  96.7377404  55.9471850  17.3162358 106.6992969  66.5222601  15.1601074
 107.1424115  65.7729926  14.7620197 105.8219479  66.5132737  14.7774806
  87.4496559  64.8970743  24.5004490  86.7078295  65.0453379  25.0869121
  87.1289304  65.1579009  23.6371240  95.3940222  74.4386721  24.2984880
  95.7027348  74.1935868  25.1707580  96.1915704  74.6433360  23.8103750
  95.4160834  76.5924631  16.5290257  94.9765824  76.1001010  17.2223113
  96.1668951  76.0497599  16.2882332  87.8953173  72.7836172  16.5314885
  88.7211193  72.4839944  16.1513528  87.5447225  72.0143794  16.9804673
  92.8634706  72.1362640  18.6012558  92.2414715  71.4733345  18.3014786
  93.5339573  72.1623772  17.9186206  86.0961778  70.7022498  17.4903818
  85.2593686  70.2744673  17.3087820  86.0685423  70.8954942  18.4274610
  92.9359234  60.6144428  28.1945064  92.9847389  61.4906551  27.8122834
  93.4781748  60.0721821  27.6216708 103.4214079  71.1585551  27.4746201
 102.6309623  71.1409690  26.9350701 103.1847434  71.6973845  28.2295238
 103.5411954  68.0078018  24.7878930 103.5909959  67.8428025  25.7294453
 103.4325878  67.1405277  24.3976811  92.4248213  70.6866564  12.0771019
  92.5736333  71.3702028  11.4237692  93.2314657  70.6671654  12.5920475
 100.8315717  63.9908946  26.1038237 101.7325580  63.8515411  25.8122235
 100.9063691  64.1563401  27.0436414  95.1658522  61.3675801  24.9491423
  94.2961832  61.6609367  24.6774012  95.4018002  61.9516246  25.6698687
 105.0430151  70.4274959  25.0320952 104.7514960  70.7904940  25.8684413
 104.4302283  69.7141968  24.8534284 106.2425834  67.9927839  17.5523522
 107.0772725  68.4317643  17.7161082 106.3784962  67.5166492  16.7331768
 103.2917339  65.5507574  23.5001010 103.7671461  65.7435220  22.6919861
 102.3682905  65.6066760  23.2544393  90.1800846  66.7131741  13.0832088
  89.9346888  65.8094071  13.2812298  90.3496761  66.7148892  12.1411566
  97.8697556  57.5855418  22.4656843  98.3879500  58.3216444  22.1403332
  97.5152689  57.8919411  23.3003603  89.4496494  62.4460099  10.5818249
  88.7565739  62.5204454   9.9258285  89.2048246  61.6820442  11.1039766
  98.1210150  54.0055700  17.9857740  98.4011904  53.3378889  18.6118167
  98.9060757  54.1984796  17.4732404 101.9919008  62.4273334  21.7329315
 102.9436431  62.5271432  21.7541539 101.8222459  61.6351603  22.2427399
 100.0133388  59.5128917  21.9188716  99.4183320  59.7933930  21.2235205
  99.7283085  60.0022818  22.6905457 104.4707086  65.6479454  20.8471615
 104.4383406  64.7095455  21.0331299 105.0807710  65.7263490  20.1137440
  96.3090417  64.5175507   6.8898819  97.2549522  64.3881715   6.9587237
  95.9304662  63.7790169   7.3668247 104.6201575  62.4390497  20.8929898
 104.1040623  61.6548954  20.7059827 105.5041523  62.1109214  21.0576417
 102.2812302  56.1831513  16.8525711 102.0837123  55.8746601  17.7369043
 102.8912007  56.9093152  16.9823640 110.2883636  66.7095461  19.9877652
 111.0187025  66.4480749  20.5485355 109.6790582  65.9724183  20.0279720
 108.3698933  64.8503323  20.5852103 107.6432097  64.7159288  19.9768594
 107.9546220  65.1580152  21.3908821  96.1929110  68.5693253  28.3499476
  97.1132119  68.7471852  28.5439522  96.1578693  67.6249298  28.1979175
  94.4933334  62.4425483   6.8253704  93.5864790  62.1458596   6.9016418
  94.7709315  62.1455301   5.9587990  85.4111275  63.7631847  17.2752750
  85.0914059  62.9097155  16.9827124  84.8644703  63.9780425  18.0310718
  89.1891182  66.4794288  20.9922257  89.4077192  67.4111395  21.0110291
  89.6016956  66.1202262  21.7777061  96.1095400  56.9862373  12.9797945
  95.2996128  56.6409458  13.3553191  96.7979817  56.6769917  13.5685557
  98.0385948  56.0640420  14.6022242  98.5916987  56.4835873  15.2612265
  98.2756035  55.1376168  14.6445198  94.0619048  62.0527493  30.3825006
  93.9615774  63.0021850  30.3137097  93.8440590  61.7245732  29.5101076
  93.2632119  59.3012418   6.9665683  94.1251283  59.6267317   7.2261501
  93.4482463  58.5143914   6.4538749  85.2799535  67.3834758  19.2445872
  84.5863006  66.9688711  18.7315826  86.0272526  67.4255295  18.6479291
 101.4164755  58.1740945  14.1100906 100.8363424  58.8325749  13.7278959
 101.1500688  57.3518289  13.6988324  99.8668322  57.5746003  16.3122227
 100.3668100  57.6862537  15.5036545 100.5103930  57.2707055  16.9523035
  93.9250318  65.4824632  29.1990068  93.4417399  66.2824992  29.4053957
  94.0111257  65.4932577  28.2457512  87.1936277  67.3153012  17.1211887
  87.1706965  67.4140699  16.1693770  87.5036914  68.1618163  17.4429053
  89.8523655  69.3729167  21.2358501  90.8066909  69.3413109  21.1688433
  89.6536179  68.9119791  22.0508727  90.4423037  67.9430283  23.8029299
  91.2615926  68.4374362  23.8264136  90.7159845  67.0262251  23.7746866
 100.1989633  60.3341035  13.1657255  99.3115488  60.6190686  12.9477449
 100.6143622  60.1734799  12.3184531 103.5504170  60.3587556  16.8811594
 104.3264560  60.8484009  17.1536211 102.8252304  60.7845610  17.3383463
 105.9876728  61.0715175  17.9385534 106.5821219  60.8310911  17.2278843
 106.0603312  60.3522306  18.5659071  88.2073884  74.9148786  18.2528699
  88.0728352  74.1549187  17.6866697  87.7905946  75.6389686  17.7857488
 100.1730657  65.8495571  13.3807545 100.1165859  66.3064123  12.5415177
 100.7259000  65.0886256  13.2030387 103.9835463  61.6385303  14.2057664
 103.7272397  61.2381939  15.0365872 103.3588331  62.3529097  14.0807803
 108.2947801  64.3781376  16.7128956 107.7347359  64.4474566  17.4860518
 107.6891304  64.2022361  15.9928452  91.3643010  75.8118103  18.4647142
  91.2475394  76.7563536  18.3625832  90.5435456  75.5091665  18.8532941
 100.9065436  67.0400352  10.6760074 100.8514240  66.8744624   9.7348518
 100.2811492  67.7476385  10.8322264  85.6957951  62.2768417  24.5021496
  86.3416815  61.7667371  24.9908721  85.4875103  63.0137098  25.0764921
  98.2211344  69.3449264  30.0013637  99.0902503  69.5189917  29.6400272
  97.7418095  70.1643681  29.8789366  94.2161562  56.5408461  10.2545392
  94.2040232  57.4850301  10.4113663  95.1084984  56.3578607   9.9604853
  92.3897524  76.4646365  21.6803070  93.2924771  76.4969976  21.9969565
  92.1634894  75.5346816  21.6949406  94.1451126  75.2177352  18.3413149
  93.1946757  75.2179213  18.2277521  94.4483612  74.4710086  17.8249184
  98.0313681  53.1351238  14.5091329  97.2646077  52.5809725  14.6548011
  98.4424386  53.2073107  15.3705481  90.0355442  59.4236034  28.5996510
  90.8986904  59.0672839  28.8099835  89.4620853  59.0849929  29.2871915
 107.1713309  82.1600170  25.3006642 107.1601949  81.7652968  24.4287145
 107.3333948  81.4266243  25.8940413 103.8920570  84.9437282  24.2485825
 103.6010436  85.8482913  24.1332492 104.5277554  84.9853809  24.9629895
 112.3578935  72.4286151  21.8439706 112.0262260  73.2981562  21.6200921
 111.7624549  72.1122435  22.5233737  99.6631747  80.7245768  18.1116113
  99.7924129  80.9780247  19.0255524  98.9829199  81.3173476  17.7920768
 106.3248464  78.5670883  26.8667954 105.5481798  79.1264803  26.8570818
 106.9639027  79.0527666  27.3882824 114.1169245  75.3497676  20.7010930
 113.4743625  75.6430209  20.0550725 113.6124174  75.2350596  21.5064127
 104.5794837  81.3756336  26.4285921 105.3209521  81.9141380  26.1520744
 103.8731822  82.0022625  26.5857473 110.0550176  83.5185477  25.0258082
 110.4633532  83.0767887  24.2812715 109.3327438  82.9438104  25.2792275
 106.4081246  78.4558084  22.3991639 107.2542442  78.8797497  22.5426288
 106.3479884  77.7991708  23.0930202 109.5580692  76.1162452  24.0572813
 109.3141624  76.8704513  23.5207089 109.8340622  76.4947800  24.8920060
 109.1145383  75.2718885  19.6386651 108.2529863  75.5700139  19.9303388
 109.1407818  75.4889284  18.7067683 103.3156200  78.5295985  27.2301231
 102.6854861  79.2112265  27.4636628 103.2092288  78.4179066  26.2854369
  98.6101173  78.1967781  18.1567155  97.8200227  78.4525309  17.6807266
  99.1012420  79.0116119  18.2619195 106.3921586  85.0857063  23.0633146
 106.4566018  85.5477470  23.8991318 105.6832510  84.4554428  23.1915456
  96.8938876  78.4498271  20.5882146  97.1446914  79.3345281  20.8539722
  97.4298424  78.2702873  19.8157238 102.5936943  72.8316750  29.5926482
 102.2003889  72.2782949  30.2674126 103.4103084  73.1427329  29.9832999
 105.5104904  74.2474630  27.1846738 106.2514618  74.8481783  27.1051201
 105.7422827  73.5052267  26.6264781 100.6546242  79.4330997  25.4624968
 100.5399757  78.5316254  25.7632067  99.7990760  79.6794694  25.1109785
 107.7338080  87.3748737  27.0612469 107.2901934  86.5885116  26.7433373
 108.3955294  87.5627888  26.3956359 106.2892372  85.1695667  25.9317378
 106.8220709  84.4083955  25.7016686 105.7606453  84.8769318  26.6741533
 109.4562067  70.2755733  21.4611020 109.1126337  71.1657374  21.3850131
 109.8241030  70.0857390  20.5980605 108.5358608  72.6460388  19.4260253
 108.0323403  72.6090523  18.6128059 108.8289214  73.5553130  19.4856910
 104.7801493  72.7299117  18.4326435 105.6454490  72.5341926  18.0732325
 104.8479002  72.5009469  19.3595792 102.3863812  74.9601325  15.8042802
 102.9607564  74.7376507  15.0715995 102.9734795  75.0290020  16.5571403
 104.6886480  71.8342574  14.5317871 104.0350893  71.5191591  13.9074486
 104.6466954  71.2118315  15.2577694 111.2549733  69.5349292  16.5628758
 111.5608610  68.6746655  16.2754673 111.9802338  70.1266912  16.3627752
 109.0637384  78.9121969  23.6610222 109.4186772  79.1393442  24.5204687
 109.7109515  79.2440346  23.0387477 102.9577247  76.0198500  20.4456563
 103.5976627  75.8787259  19.7479526 102.1254778  75.7333013  20.0695165
  99.9605864  75.9898825  15.2229549 100.2212681  76.9044158  15.1138710
 100.7823036  75.5223268  15.3726162 101.4330789  77.4036582  22.3928374
 102.1053842  77.1953944  21.7441023 100.6060575  77.2058668  21.9533606
 107.3356361  74.0298523  24.4094035 106.6884276  74.7288473  24.3158511
 108.1057376  74.4634667  24.7770283 110.7435159  84.2947375  27.4844588
 110.5920665  84.0657927  26.5674672 110.7339838  85.2517977  27.4975933
 107.5120495  81.8679288  22.4690855 108.4412555  82.0190448  22.2959822
 107.0911525  81.9563309  21.6139501 101.8358286  80.6779185  23.1530811
 101.6978084  79.9459424  23.7542350 102.7463210  80.5888085  22.8714999
 104.4640587  80.3899144  22.6414491 105.1740205  79.7492337  22.6001109
 104.4209895  80.6412039  23.5640672 103.1769521  77.3764362  24.4610130
 102.6406878  76.9255101  25.1131727 102.5886229  77.5110271  23.7180595
  94.1073920  81.6230174  17.1178101  94.7944960  81.3091904  16.5299116
  93.9522049  82.5271538  16.8445352  98.9108642  76.5120370  21.5463125
  98.8266831  75.9046040  20.8113535  98.0891349  77.0029388  21.5472621
 103.4956523  87.5988812  23.7360022 104.1965983  88.2325295  23.8889417
 103.0251638  87.9403543  22.9755662 111.5251351  71.9643527  19.0612679
 110.6114431  72.1947754  19.2294886 111.9544452  72.0481971  19.9126711
 107.3445382  80.8953230  28.0478610 106.6686019  80.7947359  28.7180985
 108.1673016  80.7392444  28.5114607  99.0924241  87.1325167  20.6691125
  99.6777678  86.3868855  20.8019029  98.8949080  87.4429123  21.5527789
  93.6841896  79.7030767  19.3895568  93.7225996  79.1694358  20.1832686
  93.1782189  79.1765972  18.7706545 101.0632658  74.5495307  22.8858110
 101.1273985  75.4110138  22.4735508 100.9999779  73.9369309  22.1530469
 100.5384931  76.6218440  26.5331145 101.1656970  76.2395517  27.1468669
  99.6812850  76.4032642  26.8986837 110.9379039  87.0281415  28.1384880
 111.4818943  87.6411373  27.6439835 110.3565884  87.5860993  28.6551893
 100.8444721  76.5050866  18.4477048 100.1231306  77.1186833  18.3084521
 101.6337976  77.0408630  18.3693694 103.6471034  73.8405292  24.7217700
 104.1705436  74.0867589  25.4844009 103.4283367  74.6725327  24.3020837
 104.8523579  74.7818987  22.4067370 104.5120400  73.9826800  22.8088050
 104.1462586  75.0820698  21.8344204 105.5040051  71.8668300  20.8594693
 106.3266120  71.3928778  20.7373584 105.7478115  72.6458783  21.3593380
 103.0278630  78.5587420  18.6686672 102.8823211  78.8727723  19.5610954
 102.5503833  79.1772321  18.1157571 104.8875013  75.5489968  18.7167562
 104.8736581  74.6531062  18.3799860 105.6047441  75.5560632  19.3505848
 106.7401143  75.9827308  20.7620689 106.4818921  76.9044379  20.7605019
 106.2086184  75.5857743  21.4521153  97.5024292  81.0992765  21.6074333
  96.9577760  81.8752573  21.7394608  98.3803642  81.4463569  21.4493455
 107.1603099  72.1159259  17.1221852 107.1824796  72.1798592  16.1673831
 107.5771158  71.2763768  17.3162358  98.2890314  80.2262661  24.5004490
  97.5472050  80.3745296  25.0869121  97.9683058  80.4870927  23.6371240
 103.7752988  75.9436346  28.1945064 103.8241144  76.8198469  27.8122834
 104.3175502  75.4013739  27.6216708 114.2607834  86.4877469  27.4746201
 113.4703378  86.4701608  26.9350701 114.0241188  87.0265763  28.2295238
 114.3805709  83.3369936  24.7878930 114.4303714  83.1719943  25.7294453
 114.2719632  82.4697195  24.3976811 111.6709471  79.3200864  26.1038237
 112.5719334  79.1807328  25.8122235 111.7457446  79.4855318  27.0436414
 106.0052277  76.6967718  24.9491423 105.1355586  76.9901284  24.6774012
 106.2411757  77.2808163  25.6698687 108.7091310  72.9147335  22.4656843
 109.2273254  73.6508362  22.1403332 108.3546443  73.2211329  23.3003603
 108.9603905  69.3347618  17.9857740 109.2405658  68.6670807  18.6118167
 109.7454512  69.5276713  17.4732404 112.8312763  77.7565252  21.7329315
 113.7830186  77.8563349  21.7541539 112.6616213  76.9643520  22.2427399
 110.8527142  74.8420835  21.9188716 110.2577075  75.1225848  21.2235205
 110.5676839  75.3314736  22.6905457 107.0322864  83.8985171  28.3499476
 107.9525874  84.0763770  28.5439522 106.9972447  82.9541216  28.1979175
  96.2505029  79.0923764  17.2752750  95.9307813  78.2389072  16.9827124
  95.7038457  79.3072342  18.0310718 100.0284937  81.8086205  20.9922257
 100.2470946  82.7403313  21.0110291 100.4410711  81.4494180  21.7777061
 104.9012802  77.3819411  30.3825006 104.8009529  78.3313768  30.3137097
 104.6834344  77.0537650  29.5101076  96.1193289  82.7126676  19.2445872
  95.4256761  82.2980629  18.7315826  96.8666280  82.7547212  18.6479291
 104.7644072  80.8116550  29.1990068 104.2811154  81.6116910  29.4053957
 104.8505011  80.8224495  28.2457512 100.6917410  84.7021085  21.2358501
 101.6460663  84.6705027  21.1688433 100.4929933  84.2411708  22.0508727
 101.2816792  83.2722201  23.8029299 102.1009681  83.7666279  23.8264136
 101.5553599  82.3554169  23.7746866  96.5351706  77.6060334  24.5021496
  97.1810570  77.0959288  24.9908721  96.3268857  78.3429016  25.0764921
 109.0605098  84.6741182  30.0013637 109.9296258  84.8481834  29.6400272
 108.5811850  85.4935599  29.8789366 108.8707436  68.4643156  14.5091329
 108.1039832  67.9101642  14.6548011 109.2818141  68.5365024  15.3705481
 100.8749197  74.7527952  28.5996510 101.7380658  74.3964756  28.8099835
 100.3014608  74.4141846  29.2871915 113.4330698  88.1608668  29.5926482
 113.0397643  87.6074867  30.2674126 114.2496838  88.4719247  29.9832999
 111.7142951  90.0819869  28.5996510 112.5774413  89.7256674  28.8099835
 111.1408362  89.7433764  29.2871915  74.6532046  13.1786540  12.0251948
  74.6420687  12.7839338  11.1532452  74.8152686  12.4452612  12.6185720
  71.3739308  15.9623651  10.9731132  71.0829174  16.8669282  10.8577798
  72.0096292  16.0040179  11.6875202  76.3329193  15.6485067   7.9680926
  76.0329916  16.5510106   7.8596733  75.9880252  15.3817250   8.8202079
  73.8067202   9.5857253  13.5913260  73.0300536  10.1451173  13.5816125
  74.4457765  10.0714036  14.1128131  72.0613575  12.3942706  13.1531227
  72.8028259  12.9327750  12.8766051  71.3550560  13.0208995  13.3102779
  77.5368914  14.5371846  11.7503389  77.9452270  14.0954257  11.0058021
  76.8146176  13.9624474  12.0037582  73.8899984   9.4744453   9.1236946
  74.7361179   9.8983867   9.2671595  73.8298622   8.8178078   9.8175509
  77.8597729  15.0973037   5.5055678  77.2306591  15.2618751   4.8031746
  77.4723391  15.5114647   6.2766642  77.0399430   7.1348822  10.7818119
  76.7960361   7.8890882  10.2452395  77.3159360   7.5134169  11.6165367
  78.9937892  13.6787434   9.4595385  79.2054788  14.3219194   8.7829766
  78.9467641  12.8449751   8.9917315  70.7974938   9.5482354  13.9546537
  70.1673599  10.2298635  14.1881934  70.6911026   9.4365436  13.0099676
  80.1083720  16.5559389   7.6317742  80.9301164  16.1539577   7.3500424
  80.1046123  16.4527624   8.5833858  73.8740324  16.1043433   9.7878453
  73.9384756  16.5663840  10.6236625  73.1651248  15.4740798   9.9160763
  70.0755681   3.8503120  16.3171788  69.6822627   3.2969319  16.9919433
  70.8921821   4.1613699  16.7078306  72.9923642   5.2660999  13.9092045
  73.7333355   5.8668152  13.8296507  73.2241565   4.5238637  13.3510088
  68.1364980  10.4517366  12.1870275  68.0218495   9.5502624  12.4877374
  67.2809498  10.6981063  11.8355091  75.2156818  18.3935107  13.7857775
  74.7720672  17.6071485  13.4678680  75.8774031  18.5814257  13.1201666
  69.9743939  19.9230908   8.3118454  70.5251364  19.7947972   7.5395448
  69.1355415  20.2225797   7.9613347  77.3138056  18.6737907  11.8139177
  77.2956531  19.4946788  11.3219446  78.2357976  18.5491982  12.0389318
  73.7711110  16.1882036  12.6562685  74.3039447  15.4270324  12.4261993
  73.2425191  15.8955688  13.3986839  76.5456122   9.9308339  10.3855528
  76.9005510  10.1579812  11.2449994  77.1928253  10.2626715   9.7632784
  76.0351133  18.7205396   7.6349229  76.0888156  19.2896332   8.4026945
  75.1665915  18.8907281   7.2703266  74.8175099   5.0484893  11.1339341
  74.1703014   5.7474842  11.0403818  75.5876114   5.4821037  11.5015590
  78.2253897  15.3133745  14.2089895  78.0739403  15.0844297  13.2919978
  78.2158576  16.2704346  14.2221240  74.9939233  12.8865658   9.1936161
  75.9231293  13.0376817   9.0205129  74.5730263  12.9749678   8.3384808
  73.7927565  16.9116322   6.9634699  73.6538651  16.5435106   7.8360637
  73.0042161  17.4263961   6.7918657  69.3177024  11.6965555   9.8776118
  69.1796822  10.9645794  10.4787657  70.2281947  11.6074455   9.5960306
  71.9459325  11.4085514   9.3659797  72.6558943  10.7678706   9.3246416
  71.9028633  11.6598409  10.2885978  79.9346103  18.3452867  12.2866377
  79.8758650  17.6612088  11.6196960  80.3365622  19.0871857  11.8347003
  68.9536802  25.1614781   5.0800096  69.1933400  25.7933305   5.7579114
  68.1105999  24.8102821   5.3665455  79.9363511  16.3092451  10.5180356
  79.0490289  15.9718373  10.6406755  80.5062062  15.5775483  10.7549122
  73.4664664  20.9693904   7.4841600  73.3934836  21.7748875   7.9960904
  73.0242057  21.1685870   6.6589621  75.9263348  20.8680738   9.6399758
  76.6391320  21.5028203   9.5675660  75.4353376  20.9644604   8.8239760
  70.9775261  18.6175181  10.4605329  71.6784721  19.2511664  10.6134723
  70.5070376  18.9589913   9.7000968  75.7383721  21.2079482   2.3886050
  75.9206115  20.3901138   2.8513802  76.5616707  21.4247174   1.9510940
  74.8264120  11.9139600  14.7723916  74.1504757  11.8133729  15.4426292
  75.6491754  11.7578813  15.2359914  66.5742979  18.1511536   7.3936432
  67.1596416  17.4055224   7.5264336  66.3767818  18.4615493   8.2773096
  73.5686903  23.2206527   9.0081532  74.1205211  23.3838149   9.7730618
  73.9093096  23.8110965   8.3361557  68.0203669   7.6404809  13.2576451
  68.6475708   7.2581887  13.8713976  67.1631588   7.4219011  13.6232144
  78.4197777  18.0467785  14.8630187  78.9637681  18.6597743  14.3685142
  77.8384622  18.6047363  15.3797200  76.7055290  21.1688503   5.9945215
  76.5806430  20.3678243   5.4856160  77.3634381  21.6634696   5.5059185
  78.7690199  18.9697523   7.6224765  77.8220534  18.8502874   7.5503091
  79.1172972  18.0820021   7.7051026  75.7736632  18.7650239   3.8229117
  75.6261594  17.8366946   4.0036687  76.5990125  18.7870330   3.3386192
  79.3770754  19.5878798   4.9093990  80.3017301  19.3821659   4.7718441
  79.2086057  19.3395199   5.8183331  73.7152714  20.7865009  11.0230187
  74.0239841  20.5414155  11.8952886  74.5128196  20.9911647  10.5349057
  73.7373326  22.9402918   3.2535563  73.2978317  22.4479297   3.9468420
  74.4881443  22.3975886   3.0127639  71.2571726   6.9622715  14.9190371
  71.3059881   7.8384838  14.5368141  71.7994240   6.4200109  14.3462014
  81.7426572  17.5063839  14.1991508  80.9522115  17.4887978  13.6596008
  81.5059926  18.0452132  14.9540545  81.8624447  14.3556305  11.5124237
  81.9122452  14.1906313  12.4539759  81.7538370  13.4883564  11.1222117
  79.1528209  10.3387233  12.8283543  80.0538072  10.1993698  12.5367541
  79.2276184  10.5041688  13.7681721  73.4871014   7.7154088  11.6736730
  72.6174324   8.0087654  11.4019318  73.7230495   8.2994533  12.3943993
  83.3642644  16.7753247  11.7566258  83.0727452  17.1383227  12.5929719
  82.7514775  16.0620255  11.5779590  74.5141602  14.9171540  15.0744782
  75.4344611  15.0950139  15.2684829  74.4791185  13.9727585  14.9224482
  72.3831540   8.4005781  17.1070313  72.2828267   9.3500137  17.0382404
  72.1653082   8.0724019  16.2346383  72.2462810  11.8302919  15.9235374
  71.7629892  12.6303279  16.1299263  72.3323749  11.8410864  14.9702818
  68.1736147  15.7207454   7.9603808  69.1279401  15.6891396   7.8933740
  67.9748671  15.2598078   8.7754034  68.7635529  14.2908570  10.5274606
  69.5828418  14.7852649  10.5509443  69.0372337  13.3740538  10.4992173
  69.6855502  22.1596391   5.1892448  69.5687886  23.1041823   5.0871139
  68.8647948  21.8569952   5.5778248  76.5423836  15.6927551  16.7258943
  77.4114996  15.8668204  16.3645578  76.0630587  16.5121968  16.6034673
  70.7110016  22.8124652   8.4048377  71.6137263  22.8448263   8.7214872
  70.4847386  21.8825103   8.4194713  72.4663618  21.5655639   5.0658456
  71.5159249  21.5657501   4.9522828  72.7696104  20.8188374   4.5494490
  68.3567935   5.7714321  15.3241817  69.2199396   5.4151126  15.5345142
  67.7833345   5.4328216  16.0117221  85.0106018  27.3543606   6.0665743
  84.6724529  27.2384670   5.1786277  85.8795786  26.9534771   6.0466749
  80.8692834  29.2079082   2.0562634  80.3057699  29.1169019   1.2878921
  80.7545229  28.3878986   2.5365126  85.4925801  28.5078457  12.0251948
  85.4814442  28.1131256  11.1532452  85.6546440  27.7744530  12.6185720
  78.4157266  30.7030274   4.8946854  79.2078557  30.3621098   4.4793153
  78.6553916  30.8125249   5.8149007  82.2133062  31.2915569  10.9731132
  81.9222928  32.1961200  10.8577798  82.8490046  31.3332097  11.6875202
  83.1389269  28.6692418   7.5632492  83.7352841  28.4448440   6.8489455
  83.1964240  27.9277163   8.1657940  87.1722947  30.9776985   7.9680926
  86.8723670  31.8802023   7.8596733  86.8274007  30.7109168   8.8202079
  80.6235429  27.4290781   4.0017630  79.6985925  27.2966996   4.2095322
  80.8719842  28.2085001   4.4987573  77.9844240  27.0724055   4.8361419
  78.1136621  27.3258534   5.7500831  77.3041691  27.6651763   4.5166074
  82.1543727  37.7421305   0.9351894  82.0767757  38.6929130   1.0140374
  81.5505371  37.3967177   1.5926820  84.6460957  24.9149170  13.5913260
  83.8694291  25.4743090  13.5816125  85.2851520  25.4005953  14.1128131
  82.9007329  27.7234624  13.1531227  83.6422013  28.2619668  12.8766051
  82.1944314  28.3500912  13.3102779  88.3762669  29.8663764  11.7503389
  88.7846025  29.4246175  11.0058021  87.6539930  29.2916392  12.0037582
  84.7293739  24.8036371   9.1236946  85.5754934  25.2275784   9.2671595
  84.6692376  24.1469995   9.8175509  88.6991483  30.4264955   5.5055678
  88.0700346  30.5910669   4.8031746  88.3117145  30.8406564   6.2766642
  87.8793184  22.4640739  10.7818119  87.6354116  23.2182800  10.2452395
  88.1553115  22.8426087  11.6165367  89.8331647  29.0079352   9.4595385
  90.0448542  29.6511112   8.7829766  89.7861395  28.1741668   8.9917315
  84.2519445  30.1639363   2.7705763  84.7157791  30.4427066   1.9810385
  83.9876243  29.2622807   2.5878854  81.1443526  29.7110844   5.7085526
  81.7144883  30.1398113   5.0703011  81.7351638  29.4293429   6.4069712
  81.6368693  24.8774272  13.9546537  81.0067353  25.5590553  14.1881934
  81.5304781  24.7657353  13.0099676  76.9313665  24.5446068   4.8812462
  76.1412719  24.8003596   4.4052572  77.4224913  25.3594406   4.9864502
  90.9477475  31.8851307   7.6317742  91.7694918  31.4831494   7.3500424
  90.9439878  31.7819541   8.5833858  78.8828411  24.9090647   1.8395938
  78.0859574  25.0209341   2.3579434  78.6554003  25.2477299   0.9736829
  84.7134078  31.4335350   9.7878453  84.7778511  31.8955758  10.6236625
  84.0045002  30.8032715   9.9160763  75.2151368  24.7976558   7.3127452
  75.4659407  25.6823568   7.5785028  75.7510917  24.6181160   6.5402544
  80.9149435  19.1795038  16.3171788  80.5216381  18.6261236  16.9919433
  81.7315576  19.4905616  16.7078306  77.8811493  30.6178896   0.2285358
  78.3936014  31.4122146   0.3790923  78.5334206  29.9205186   0.1618960
  79.6906378  33.7344652   2.3108112  79.8673006  34.6562617   2.1229095
  80.4863211  33.4203071   2.7402491  83.8317396  20.5952917  13.9092045
  84.5727110  21.1960070  13.8296507  84.0635319  19.8530555  13.3510088
  78.9758734  25.7809284  12.1870275  78.8612250  24.8794541  12.4877374
  78.1203252  26.0272981  11.8355091  86.0550572  33.7227024  13.7857775
  85.6114426  32.9363403  13.4678680  86.7167786  33.9106175  13.1201666
  80.8137693  35.2522826   8.3118454  81.3645119  35.1239889   7.5395448
  79.9749169  35.5517715   7.9613347  88.1531810  34.0029824  11.8139177
  88.1350286  34.8238705  11.3219446  89.0751730  33.8783900  12.0389318
  84.6104864  31.5173954  12.6562685  85.1433201  30.7562242  12.4261993
  84.0818946  31.2247606  13.3986839  75.8460410  28.9467550   1.0044929
  76.6835632  29.3564559   0.7878637  76.0238678  28.0066992   0.9745123
  75.8686581  26.2858266   1.6755662  75.6710981  25.6927626   0.9506729
  75.3133245  25.9810476   2.3931601  83.8483305  26.1781372   3.7950255
  83.9031915  25.2255208   3.7192732  83.0374507  26.3340811   4.2791554
  83.9384243  34.7916189   3.4874899  83.8960421  35.0177035   2.5583431
  84.8546941  34.5579563   3.6360700  87.3849876  25.2600256  10.3855528
  87.7399264  25.4871729  11.2449994  88.0322008  25.5918633   9.7632784
  81.2789739  22.3676787   7.1701869  81.9189119  22.2265546   6.4724833
  80.4467270  22.0811301   6.7940471  82.0550043  31.6679218   3.2836862
  82.8490642  31.1729538   3.0819437  81.3441736  31.1397081   2.9204567
  86.8744888  34.0497313   7.6349229  86.9281910  34.6188250   8.4026945
  86.0059669  34.2199198   7.2703266  78.2818356  22.3377112   1.9474856
  78.5425173  23.2522446   1.8384017  79.1035528  21.8701555   2.0971469
  79.7543281  23.7514869   9.1173681  80.4266335  23.5432232   8.4686330
  78.9273068  23.5536955   8.6778913  85.6568853  20.3776810  11.1339341
  85.0096768  21.0766760  11.0403818  86.4269869  20.8112954  11.5015590
  89.0647651  30.6425663  14.2089895  88.9133158  30.4136214  13.2919978
  89.0552331  31.5996264  14.2221240  85.8332988  28.2157575   9.1936161
  86.7625048  28.3668735   9.0205129  85.4124018  28.3041596   8.3384808
  84.6321319  32.2408240   6.9634699  84.4932405  31.8727024   7.8360637
  83.8435916  32.7555879   6.7918657  85.2269471  37.3417336  -1.6939765
  85.4021227  36.8705379  -0.8794142  84.5402259  37.9683102  -1.4658504
  86.1826535  31.6189842   4.3523537  85.8476367  31.5790612   5.2481187
  85.6830480  30.9534558   3.8793947  80.1570779  27.0257472   9.8776118
  80.0190576  26.2937711  10.4787657  81.0675702  26.9366373   9.5960306
  82.7853079  26.7377432   9.3659797  83.4952698  26.0970624   9.3246416
  82.7422387  26.9890327  10.2885978  90.7739858  33.6744785  12.2866377
  90.7152404  32.9904005  11.6196960  91.1759376  34.4163775  11.8347003
  81.4982013  23.7242650  11.1855437  80.9619370  23.2733388  11.8377033
  80.9098722  23.8588558  10.4425901  79.7930557  40.4906699   5.0800096
  80.0327155  41.1225223   5.7579114  78.9499753  40.1394739   5.3665455
  90.7757265  31.6384369  10.5180356  89.8884044  31.3010291  10.6406755
  91.3455816  30.9067400  10.7549122  72.4286412  27.9708461   3.8423408
  73.1157452  27.6570191   3.2544423  72.2734541  28.8749825   3.5690659
  77.2321134  22.8598657   8.2708431  77.1479323  22.2524327   7.5358841
  76.4103841  23.3507676   8.2717928  84.3058419  36.2985821   7.4841600
  84.2328590  37.1040793   7.9960904  83.8635812  36.4977787   6.6589621
  84.0948198  35.5357591   0.9944421  83.3115720  36.0779272   1.0882646
  84.7940943  36.0531571   1.3938662  86.7657102  36.1972655   9.6399758
  87.4785074  36.8320120   9.5675660  86.2747131  36.2936521   8.8239760
  81.8169016  33.9467099  10.4605329  82.5178475  34.5803582  10.6134723
  81.3464131  34.2881830   9.7000968  86.5777475  36.5371399   2.3886050
  86.7599870  35.7193055   2.8513802  87.4010461  36.7539092   1.9510940
  85.6657875  27.2431517  14.7723916  84.9898512  27.1425647  15.4426292
  86.4885508  27.0870731  15.2359914  77.4136734  33.4803454   7.3936432
  77.9990170  32.7347142   7.5264336  77.2161572  33.7907411   8.2773096
  80.2675389  36.5154701   2.4098874  79.5985764  37.0000829   1.9262914
  80.1288259  36.7623922   3.3242253  72.0054388  26.0509054   6.1140875
  72.0438488  25.5172645   6.9077993  71.4994681  25.5244260   5.4951852
  84.4080657  38.5498445   9.0081532  84.9598965  38.7130066   9.7730618
  84.7486851  39.1402883   8.3361557  79.3845151  20.8973595   9.6103417
  79.4486477  21.7588426   9.1980815  79.3212271  20.2847596   8.8775776
  78.8597423  22.9696727  13.2576451  79.4869462  22.5873804  13.8713976
  78.0025342  22.7510929  13.6232144  89.2591532  33.3759702  14.8630187
  89.8031436  33.9889661  14.3685142  88.6778377  33.9339281  15.3797200
  87.5449045  36.4980420   5.9945215  87.4200184  35.6970160   5.4856160
  88.2028136  36.9926614   5.5059185  79.1657213  22.8529153   5.1722355
  78.4443799  23.4665121   5.0329828  79.9550469  23.3886918   5.0939001
  89.6083953  34.2989440   7.6224765  88.6614289  34.1794792   7.5503091
  89.9566726  33.4111938   7.7051026  81.9683526  20.1883579  11.4463007
  82.4917928  20.4345876  12.2089316  81.7495860  21.0203614  11.0266144
  86.6130386  34.0942157   3.8229117  86.4655349  33.1658864   4.0036687
  87.4383880  34.1162247   3.3386192  90.2164508  34.9170715   4.9093990
  91.1411056  34.7113577   4.7718441  90.0479812  34.6687117   5.8183331
  83.1736072  21.1297274   9.1312677  82.8332892  20.3305088   9.5333357
  82.4675078  21.4298985   8.5589510  81.3491122  24.9065708   5.3931979
  81.2035703  25.2206011   6.2856260  80.8716326  25.5250608   4.8402877
  85.0613636  22.3305596   7.4865996  84.8031414  23.2522666   7.4850326
  84.5298676  21.9336030   8.1766460  75.8236784  27.4471052   8.3319640
  75.2790252  28.2230860   8.4639914  76.7016134  27.7941856   8.1738761
  76.6102806  26.5740948  11.2249797  75.8684542  26.7223584  11.8114427
  76.2895550  26.8349214  10.3616546  84.5546469  36.1156926  11.0230187
  84.8633595  35.8706073  11.8952886  85.3521951  36.3203565  10.5349057
  84.5767081  38.2694836   3.2535563  84.1372071  37.7771215   3.9468420
  85.3275198  37.7267804   3.0127639  77.0559420  34.4606377   3.2560191
  77.8817440  34.1610149   2.8758835  76.7053472  33.6913999   3.7049980
  82.0240953  33.8132845   5.3257865  81.4020962  33.1503550   5.0260093
  82.6945820  33.8393977   4.6431513  75.2568025  32.3792703   4.2149125
  74.4199933  31.9514878   4.0333126  75.2291670  32.5725147   5.1519916
  82.0965480  22.2914633  14.9190371  82.1453636  23.1676756  14.5368141
  82.6387995  21.7492026  14.3462014  92.5820326  32.8355756  14.1991508
  91.7915870  32.8179895  13.6596008  92.3453681  33.3744050  14.9540545
  92.7018201  29.6848223  11.5124237  92.7516206  29.5198230  12.4539759
  92.5932125  28.8175482  11.1222117  81.5854460  32.3636768  -1.1983674
  81.7342580  33.0472233  -1.8517002  82.3920903  32.3441859  -0.6834219
  89.9921964  25.6679151  12.8283543  90.8931826  25.5285616  12.5367541
  90.0669938  25.8333606  13.7681721  84.3264769  23.0446006  11.6736730
  83.4568078  23.3379572  11.4019318  84.5624249  23.6286451  12.3943993
  94.2036398  32.1045164  11.7566258  93.9121206  32.4675145  12.5929719
  93.5908529  31.3912173  11.5779590  79.3407093  28.3901946  -0.1922606
  79.0953135  27.4864276   0.0057605  79.5103007  28.3919097  -1.1343128
  85.3535356  30.2463458  15.0744782  86.2738366  30.4242057  15.2684829
  85.3184939  29.3019503  14.9224482  74.5717521  25.4402051   3.9998057
  74.2520306  24.5867360   3.7072431  74.0250950  25.6550630   4.7556024
  78.3497429  28.1564492   7.7167564  78.5683439  29.0881600   7.7355597
  78.7623203  27.7972467   8.5022367  83.2225294  23.7297698  17.1070313
  83.1222021  24.6792055  17.0382404  83.0046836  23.4015937  16.2346383
  74.4405781  29.0604963   5.9691179  73.7469253  28.6458916   5.4561133
  75.1878772  29.1025499   5.3724598  83.0856564  27.1594837  15.9235374
  82.6023646  27.9595197  16.1299263  83.1717503  27.1702782  14.9702818
  76.3542524  28.9923217   3.8457194  76.3313212  29.0910904   2.8939077
  76.6643160  29.8388368   4.1674360  79.0129902  31.0499372   7.9603808
  79.9673155  31.0183314   7.8933740  78.8142425  30.5889995   8.7754034
  79.6029284  29.6200488  10.5274606  80.4222173  30.1144566  10.5509443
  79.8766092  28.7032456  10.4992173  77.3680131  36.5918991   4.9774006
  77.2334599  35.8319392   4.4112004  76.9512193  37.3159891   4.5102795
  80.5249256  37.4888308   5.1892448  80.4081641  38.4333741   5.0871139
  79.7041703  37.1861870   5.5778248  74.8564198  23.9538622  11.2266803
  75.5023062  23.4437576  11.7154028  74.6481349  24.6907303  11.8010228
  87.3817590  31.0219469  16.7258943  88.2508750  31.1960121  16.3645578
  86.9024342  31.8413886  16.6034673  81.5503771  38.1416570   8.4048377
  82.4531017  38.1740180   8.7214872  81.3241141  37.2117021   8.4194713
  83.3057373  36.8947557   5.0658456  82.3553004  36.8949418   4.9522828
  83.6089859  36.1480291   4.5494490  79.1961689  21.1006239  15.3241817
  80.0593151  20.7443044  15.5345142  78.6227100  20.7620134  16.0117221
  95.8499772  42.6835523   6.0665743  95.5118284  42.5676588   5.1786277
  96.7189541  42.2826688   6.0466749  91.7086588  44.5371000   2.0562634
  91.1451453  44.4460937   1.2878921  91.5938983  43.7170904   2.5365126
  96.3319555  43.8370375  12.0251948  96.3208196  43.4423173  11.1532452
  96.4940195  43.1036448  12.6185720  89.2551020  46.0322191   4.8946854
  90.0472312  45.6913016   4.4793153  89.4947670  46.1417166   5.8149007
  93.0526817  46.6207487  10.9731132  92.7616683  47.5253118  10.8577798
  93.6883801  46.6624014  11.6875202  93.9783023  43.9984335   7.5632492
  94.5746596  43.7740358   6.8489455  94.0357995  43.2569081   8.1657940
  98.0116702  46.3068902   7.9680926  97.7117425  47.2093941   7.8596733
  97.6667761  46.0401085   8.8202079  91.4629183  42.7582699   4.0017630
  90.5379680  42.6258913   4.2095322  91.7113596  43.5376918   4.4987573
  88.8237994  42.4015973   4.8361419  88.9530375  42.6550452   5.7500831
  88.1435445  42.9943681   4.5166074  92.9937481  53.0713223   0.9351894
  92.9161511  54.0221048   1.0140374  92.3899125  52.7259095   1.5926820
  95.4854711  40.2441088  13.5913260  94.7088045  40.8035008  13.5816125
  96.1245274  40.7297871  14.1128131  93.7401084  43.0526541  13.1531227
  94.4815768  43.5911585  12.8766051  93.0338069  43.6792830  13.3102779
  99.2156423  45.1955682  11.7503389  99.6239779  44.7538092  11.0058021
  98.4933685  44.6208309  12.0037582  95.5687493  40.1328289   9.1236946
  96.4148688  40.5567702   9.2671595  95.5086131  39.4761913   9.8175509
  99.5385238  45.7556872   5.5055678  98.9094100  45.9202587   4.8031746
  99.1510900  46.1698482   6.2766642  98.7186939  37.7932657  10.7818119
  98.4747870  38.5474718  10.2452395  98.9946869  38.1718005  11.6165367
 100.6725401  44.3371269   9.4595385 100.8842297  44.9803029   8.7829766
 100.6255150  43.5033586   8.9917315  95.0913200  45.4931281   2.7705763
  95.5551545  45.7718984   1.9810385  94.8269998  44.5914725   2.5878854
  91.9837281  45.0402762   5.7085526  92.5538638  45.4690030   5.0703011
  92.5745393  44.7585347   6.4069712  92.4762447  40.2066190  13.9546537
  91.8461108  40.8882470  14.1881934  92.3698535  40.0949271  13.0099676
  87.7707420  39.8737986   4.8812462  86.9806474  40.1295514   4.4052572
  88.2618667  40.6886323   4.9864502 101.7871229  47.2143225   7.6317742
 102.6088673  46.8123412   7.3500424 101.7833632  47.1111459   8.5833858
  89.7222165  40.2382565   1.8395938  88.9253328  40.3501259   2.3579434
  89.4947757  40.5769217   0.9736829  95.5527833  46.7627268   9.7878453
  95.6172265  47.2247675  10.6236625  94.8438757  46.1324633   9.9160763
  86.0545123  40.1268476   7.3127452  86.3053161  41.0115486   7.5785028
  86.5904671  39.9473078   6.5402544  91.7543190  34.5086955  16.3171788
  91.3610136  33.9553154  16.9919433  92.5709330  34.8197534  16.7078306
  88.7205248  45.9470814   0.2285358  89.2329768  46.7414064   0.3790923
  89.3727961  45.2497104   0.1618960  90.5300132  49.0636570   2.3108112
  90.7066761  49.9854535   2.1229095  91.3256966  48.7494989   2.7402491
  94.6711151  35.9244834  13.9092045  95.4120864  36.5251988  13.8296507
  94.9029074  35.1822472  13.3510088  89.8152489  41.1101202  12.1870275
  89.7006004  40.2086459  12.4877374  88.9597007  41.3564899  11.8355091
  96.8944327  49.0518942  13.7857775  96.4508181  48.2655321  13.4678680
  97.5561540  49.2398093  13.1201666  91.6531448  50.5814744   8.3118454
  92.2038873  50.4531807   7.5395448  90.8142924  50.8809633   7.9613347
  98.9925565  49.3321742  11.8139177  98.9744040  50.1530623  11.3219446
  99.9145485  49.2075817  12.0389318  95.4498619  46.8465871  12.6562685
  95.9826956  46.0854160  12.4261993  94.9212700  46.5539523  13.3986839
  86.6854165  44.2759468   1.0044929  87.5229387  44.6856476   0.7878637
  86.8632432  43.3358910   0.9745123  86.7080336  41.6150183   1.6755662
  86.5104735  41.0219544   0.9506729  86.1527000  41.3102393   2.3931601
  94.6877059  41.5073290   3.7950255  94.7425669  40.5547126   3.7192732
  93.8768261  41.6632729   4.2791554  94.7777997  50.1208106   3.4874899
  94.7354176  50.3468953   2.5583431  95.6940696  49.8871481   3.6360700
  98.2243631  40.5892174  10.3855528  98.5793019  40.8163647  11.2449994
  98.8715762  40.9210551   9.7632784  92.1183494  37.6968705   7.1701869
  92.7582873  37.5557464   6.4724833  91.2861025  37.4103218   6.7940471
  92.8943798  46.9971135   3.2836862  93.6884396  46.5021456   3.0819437
  92.1835490  46.4688999   2.9204567  97.7138642  49.3789231   7.6349229
  97.7675665  49.9480167   8.4026945  96.8453424  49.5491116   7.2703266
  89.1212110  37.6669030   1.9474856  89.3818928  38.5814363   1.8384017
  89.9429283  37.1993473   2.0971469  90.5937036  39.0806787   9.1173681
  91.2660089  38.8724149   8.4686330  89.7666822  38.8828873   8.6778913
  96.4962608  35.7068728  11.1339341  95.8490523  36.4058678  11.0403818
  97.2663623  36.1404872  11.5015590  99.9041406  45.9717580  14.2089895
  99.7526912  45.7428132  13.2919978  99.8946085  46.9288182  14.2221240
  96.6726742  43.5449493   9.1936161  97.6018802  43.6960653   9.0205129
  96.2517772  43.6333514   8.3384808  95.4715074  47.5700157   6.9634699
  95.3326160  47.2018942   7.8360637  94.6829670  48.0847797   6.7918657
  97.0220289  46.9481760   4.3523537  96.6870122  46.9082530   5.2481187
  96.5224235  46.2826476   3.8793947  90.9964533  42.3549390   9.8776118
  90.8584331  41.6229629  10.4787657  91.9069456  42.2658290   9.5960306
  93.6246834  42.0669349   9.3659797  94.3346452  41.4262542   9.3246416
  93.5816142  42.3182244  10.2885978 101.6133612  49.0036703  12.2866377
 101.5546158  48.3195923  11.6196960 102.0153131  49.7455693  11.8347003
  92.3375768  39.0534567  11.1855437  91.8013125  38.6025306  11.8377033
  91.7492476  39.1880476  10.4425901  90.6324311  55.8198617   5.0800096
  90.8720909  56.4517141   5.7579114  89.7893508  55.4686657   5.3665455
 101.6151020  46.9676287  10.5180356 100.7277798  46.6302208  10.6406755
 102.1849571  46.2359318  10.7549122  83.2680167  43.3000378   3.8423408
  83.9551207  42.9862108   3.2544423  83.1128295  44.2041743   3.5690659
  88.0714889  38.1890575   8.2708431  87.9873078  37.5816245   7.5358841
  87.2497595  38.6799593   8.2717928  95.1452173  51.6277739   7.4841600
  95.0722344  52.4332711   7.9960904  94.7029566  51.8269705   6.6589621
  94.9341953  50.8649509   0.9944421  94.1509475  51.4071189   1.0882646
  95.6334698  51.3823489   1.3938662  97.6050857  51.5264573   9.6399758
  98.3178829  52.1612038   9.5675660  97.1140885  51.6228439   8.8239760
  92.6562770  49.2759017  10.4605329  93.3572230  49.9095499  10.6134723
  92.1857885  49.6173748   9.7000968  97.4171230  51.8663317   2.3886050
  97.5993624  51.0484973   2.8513802  98.2404216  52.0831009   1.9510940
  96.5051629  42.5723435  14.7723916  95.8292266  42.4717564  15.4426292
  97.3279263  42.4162649  15.2359914  88.2530488  48.8095372   7.3936432
  88.8383925  48.0639059   7.5264336  88.0555327  49.1199328   8.2773096
  91.1069143  51.8446619   2.4098874  90.4379519  52.3292747   1.9262914
  90.9682013  52.0915839   3.3242253  82.8448143  41.3800972   6.1140875
  82.8832242  40.8464562   6.9077993  82.3388436  40.8536177   5.4951852
  95.2474412  53.8790362   9.0081532  95.7992720  54.0421984   9.7730618
  95.5880605  54.4694800   8.3361557  90.2238905  36.2265512   9.6103417
  90.2880232  37.0880343   9.1980815  90.1606025  35.6139514   8.8775776
  89.6991178  38.2988645  13.2576451  90.3263216  37.9165722  13.8713976
  88.8419097  38.0802847  13.6232144 100.0985286  48.7051620  14.8630187
 100.6425190  49.3181578  14.3685142  99.5172131  49.2631198  15.3797200
  86.4756720  40.1065074  -0.8105194  86.7710162  39.1975752  -0.8638140
  85.5744756  40.0852813  -1.1324191  98.3842799  51.8272338   5.9945215
  98.2593939  51.0262078   5.4856160  99.0421890  52.3218531   5.5059185
  90.0050967  38.1821071   5.1722355  89.2837553  38.7957038   5.0329828
  90.7944223  38.7178835   5.0939001 100.4477708  49.6281358   7.6224765
  99.5008043  49.5086709   7.5503091 100.7960481  48.7403856   7.7051026
  92.8077281  35.5175497  11.4463007  93.3311683  35.7637794  12.2089316
  92.5889614  36.3495532  11.0266144  97.4524141  49.4234074   3.8229117
  97.3049103  48.4950782   4.0036687  98.2777634  49.4454165   3.3386192
 101.0558263  50.2462633   4.9093990 101.9804810  50.0405494   4.7718441
 100.8873566  49.9979034   5.8183331  94.0129826  36.4589192   9.1312677
  93.6726646  35.6597005   9.5333357  93.3068832  36.7590903   8.5589510
  92.1884877  40.2357625   5.3931979  92.0429457  40.5497928   6.2856260
  91.7110080  40.8542526   4.8402877  95.9007390  37.6597513   7.4865996
  95.6425168  38.5814584   7.4850326  95.3692431  37.2627948   8.1766460
  86.6630539  42.7762970   8.3319640  86.1184007  43.5522778   8.4639914
  87.5409889  43.1233774   8.1738761  87.4496561  41.9032866  11.2249797
  86.7078297  42.0515501  11.8114427  87.1289305  42.1641131  10.3616546
  95.3940223  51.4448844  11.0230187  95.7027350  51.1997991  11.8952886
  96.1915705  51.6495483  10.5349057  95.4160835  53.5986754   3.2535563
  94.9765826  53.1063132   3.9468420  96.1668952  53.0559721   3.0127639
  87.8953174  49.7898295   3.2560191  88.7211194  49.4902066   2.8758835
  87.5447226  49.0205917   3.7049980  92.8634707  49.1424763   5.3257865
  92.2414717  48.4795468   5.0260093  93.5339574  49.1685895   4.6431513
  86.0961779  47.7084621   4.2149125  85.2593688  47.2806795   4.0333126
  86.0685425  47.9017064   5.1519916  92.9359235  37.6206551  14.9190371
  92.9847390  38.4968674  14.5368141  93.4781749  37.0783944  14.3462014
 103.4214081  48.1647674  14.1991508 102.6309624  48.1471813  13.6596008
 103.1847435  48.7035968  14.9540545 103.5411956  45.0140140  11.5124237
 103.5909961  44.8490148  12.4539759 103.4325879  44.1467399  11.1222117
  92.4248214  47.6928686  -1.1983674  92.5736335  48.3764151  -1.8517002
  93.2314658  47.6733776  -0.6834219 100.8315718  40.9971068  12.8283543
 101.7325581  40.8577533  12.5367541 100.9063693  41.1625523  13.7681721
  95.1658523  38.3737923  11.6736730  94.2961833  38.6671489  11.4019318
  95.4018004  38.9578368  12.3943993 105.0430152  47.4337082  11.7566258
 104.7514961  47.7967063  12.5929719 104.4302284  46.7204090  11.5779590
  90.1800847  43.7193864  -0.1922606  89.9346889  42.8156194   0.0057605
  90.3496762  43.7211014  -1.1343128  96.1929111  45.5755375  15.0744782
  97.1132120  45.7533974  15.2684829  96.1578694  44.6311421  14.9224482
  85.4111276  40.7693969   3.9998057  85.0914060  39.9159277   3.7072431
  84.8644704  40.9842547   4.7556024  89.1891183  43.4856410   7.7167564
  89.4077193  44.4173518   7.7355597  89.6016957  43.1264385   8.5022367
  94.0619049  39.0589616  17.1070313  93.9615776  40.0083973  17.0382404
  93.8440591  38.7307855  16.2346383  85.2799536  44.3896881   5.9691179
  84.5863007  43.9750833   5.4561133  86.0272527  44.4317417   5.3724598
  93.9250319  42.4886755  15.9235374  93.4417401  43.2887115  16.1299263
  94.0111258  42.4994700  14.9702818  87.1936278  44.3215134   3.8457194
  87.1706967  44.4202822   2.8939077  87.5036915  45.1680285   4.1674360
  89.8523656  46.3791289   7.9603808  90.8066910  46.3475232   7.8933740
  89.6536180  45.9181913   8.7754034  90.4423038  44.9492405  10.5274606
  91.2615927  45.4436484  10.5509443  90.7159846  44.0324374  10.4992173
  88.2073885  51.9210909   4.9774006  88.0728353  51.1611310   4.4112004
  87.7905947  52.6451809   4.5102795  91.3643011  52.8180226   5.1892448
  91.2475395  53.7625658   5.0871139  90.5435457  52.5153788   5.5778248
  85.6957953  39.2830539  11.2266803  86.3416816  38.7729493  11.7154028
  85.4875104  40.0199221  11.8010228  98.2211345  46.3511387  16.7258943
  99.0902505  46.5252039  16.3645578  97.7418096  47.1705804  16.6034673
  92.3897525  53.4708488   8.4048377  93.2924772  53.5032098   8.7214872
  92.1634895  52.5408939   8.4194713  94.1451127  52.2239474   5.0658456
  93.1946758  52.2241336   4.9522828  94.4483613  51.4772209   4.5494490
  90.0355444  36.4298156  15.3241817  90.8986905  36.0734961  15.5345142
  89.4620854  36.0912051  16.0117221 107.1713310  59.1662293  12.0251948
 107.1601951  58.7715091  11.1532452 107.3333949  58.4328365  12.6185720
 103.8920571  61.9499404  10.9731132 103.6010437  62.8545035  10.8577798
 104.5277555  61.9915932  11.6875202  99.6631749  57.7307890   4.8361419
  99.7924130  57.9842369   5.7500831  98.9829200  58.3235598   4.5166074
 106.3248466  55.5733006  13.5913260 105.5481800  56.1326926  13.5816125
 106.9639029  56.0589789  14.1128131 104.5794838  58.3818459  13.1531227
 105.3209522  58.9203503  12.8766051 103.8731823  59.0084748  13.3102779
 110.0550178  60.5247600  11.7503389 110.4633534  60.0830010  11.0058021
 109.3327439  59.9500227  12.0037582 106.4081248  55.4620206   9.1236946
 107.2542443  55.8859620   9.2671595 106.3479885  54.8053831   9.8175509
 109.5580693  53.1224575  10.7818119 109.3141625  53.8766635  10.2452395
 109.8340624  53.5009922  11.6165367 103.3156202  55.5358107  13.9546537
 102.6854862  56.2174388  14.1881934 103.2092290  55.4241189  13.0099676
  98.6101174  55.2029903   4.8812462  97.8200228  55.4587432   4.4052572
  99.1012422  56.0178241   4.9864502 106.3921587  62.0919186   9.7878453
 106.4566020  62.5539593  10.6236625 105.6832511  61.4616551   9.9160763
  96.8938877  55.4560394   7.3127452  97.1446916  56.3407404   7.5785028
  97.4298426  55.2764995   6.5402544 102.5936944  49.8378873  16.3171788
 102.2003890  49.2845072  16.9919433 103.4103085  50.1489452  16.7078306
 105.5104905  51.2536752  13.9092045 106.2514619  51.8543905  13.8296507
 105.7422828  50.5114390  13.3510088 100.6546243  56.4393119  12.1870275
 100.5399759  55.5378377  12.4877374  99.7990761  56.6856816  11.8355091
 107.7338081  64.3810860  13.7857775 107.2901935  63.5947238  13.4678680
 108.3955295  64.5690010  13.1201666 106.2892373  62.1757789  12.6562685
 106.8220710  61.4146077  12.4261993 105.7606455  61.8831441  13.3986839
 109.0637385  55.9184092  10.3855528 109.4186773  56.1455565  11.2449994
 109.7109517  56.2502468   9.7632784 102.9577248  53.0260623   7.1701869
 103.5976628  52.8849382   6.4724833 102.1254779  52.7395136   6.7940471
  99.9605865  52.9960948   1.9474856 100.2212682  53.9106281   1.8384017
 100.7823037  52.5285390   2.0971469 101.4330790  54.4098705   9.1173681
 102.1053844  54.2016067   8.4686330 100.6060577  54.2120791   8.6778913
 107.3356362  51.0360646  11.1339341 106.6884277  51.7350595  11.0403818
 108.1057378  51.4696790  11.5015590 110.7435160  61.3009498  14.2089895
 110.5920667  61.0720050  13.2919978 110.7339840  62.2580099  14.2221240
 107.5120497  58.8741411   9.1936161 108.4412557  59.0252570   9.0205129
 107.0911527  58.9625431   8.3384808 101.8358287  57.6841308   9.8776118
 101.6978085  56.9521547  10.4787657 102.7463211  57.5950208   9.5960306
 104.4640588  57.3961267   9.3659797 105.1740207  56.7554459   9.3246416
 104.4209896  57.6474162  10.2885978 103.1769522  54.3826485  11.1855437
 102.6406879  53.9317223  11.8377033 102.5886231  54.5172394  10.4425901
  94.1073921  58.6292296   3.8423408  94.7944961  58.3154026   3.2544423
  93.9522050  59.5333661   3.5690659  98.9108643  53.5182493   8.2708431
  98.8266832  52.9108162   7.5358841  98.0891350  54.0091511   8.2717928
 103.4956525  64.6050934  10.4605329 104.1965984  65.2387417  10.6134723
 103.0251640  64.9465666   9.7000968 107.3445384  57.9015353  14.7723916
 106.6686021  57.8009482  15.4426292 108.1673017  57.7454566  15.2359914
  99.0924243  64.1387289   7.3936432  99.6777679  63.3930977   7.5264336
  98.8949081  64.4491246   8.2773096  93.6841897  56.7092889   6.1140875
  93.7225997  56.1756480   6.9077993  93.1782190  56.1828095   5.4951852
 101.0632660  51.5557430   9.6103417 101.1273986  52.4172261   9.1980815
 100.9999780  50.9431432   8.8775776 100.5384932  53.6280563  13.2576451
 101.1656971  53.2457640  13.8713976  99.6812851  53.4094764  13.6232144
 110.9379041  64.0343538  14.8630187 111.4818945  64.6473496  14.3685142
 110.3565886  64.5923116  15.3797200 100.8444722  53.5112988   5.1722355
 100.1231308  54.1248956   5.0329828 101.6337978  54.0470753   5.0939001
 103.6471035  50.8467415  11.4463007 104.1705437  51.0929711  12.2089316
 103.4283369  51.6787450  11.0266144 104.8523580  51.7881110   9.1312677
 104.5120401  50.9888923   9.5333357 104.1462587  52.0882821   8.5589510
 103.0278631  55.5649543   5.3931979 102.8823212  55.8789846   6.2856260
 102.5503835  56.1834443   4.8402877 106.7401145  52.9889431   7.4865996
 106.4818922  53.9106502   7.4850326 106.2086185  52.5919866   8.1766460
  97.5024293  58.1054887   8.3319640  96.9577761  58.8814695   8.4639914
  98.3803643  58.4525692   8.1738761  98.2890315  57.2324784  11.2249797
  97.5472051  57.3807419  11.8114427  97.9683059  57.4933049  10.3616546
 103.7752989  52.9498468  14.9190371 103.8241145  53.8260591  14.5368141
 104.3175504  52.4075862  14.3462014 114.2607835  63.4939592  14.1991508
 113.4703379  63.4763731  13.6596008 114.0241190  64.0327885  14.9540545
 114.3805710  60.3432058  11.5124237 114.4303715  60.1782066  12.4539759
 114.2719634  59.4759317  11.1222117 111.6709473  56.3262986  12.8283543
 112.5719335  56.1869451  12.5367541 111.7457447  56.4917441  13.7681721
 106.0052278  53.7029841  11.6736730 105.1355587  53.9963407  11.4019318
 106.2411758  54.2870286  12.3943993 107.0322865  60.9047293  15.0744782
 107.9525875  61.0825892  15.2684829 106.9972448  59.9603339  14.9224482
  96.2505030  56.0985887   3.9998057  95.9307815  55.2451195   3.7072431
  95.7038459  56.3134465   4.7556024 100.0284938  58.8148328   7.7167564
 100.2470948  59.7465436   7.7355597 100.4410712  58.4556302   8.5022367
 104.9012803  54.3881534  17.1070313 104.8009530  55.3375891  17.0382404
 104.6834345  54.0599772  16.2346383  96.1193290  59.7188798   5.9691179
  95.4256762  59.3042751   5.4561133  96.8666281  59.7609335   5.3724598
 104.7644073  57.8178672  15.9235374 104.2811155  58.6179033  16.1299263
 104.8505012  57.8286617  14.9702818 100.6917411  61.7083207   7.9603808
 101.6460664  61.6767149   7.8933740 100.4929934  61.2473831   8.7754034
 101.2816793  60.2784323  10.5274606 102.1009682  60.7728402  10.5509443
 101.5553601  59.3616291  10.4992173  96.5351707  54.6122457  11.2266803
  97.1810571  54.1021411  11.7154028  96.3268858  55.3491139  11.8010228
 109.0605099  61.6803305  16.7258943 109.9296259  61.8543957  16.3645578
 108.5811851  62.4997721  16.6034673 100.8749198  51.7590074  15.3241817
 101.7380660  51.4026879  15.5345142 100.3014609  51.4203969  16.0117221
 113.4330699  65.1670791  16.3171788 113.0397645  64.6136989  16.9919433
 114.2496839  65.4781369  16.7078306 111.7142953  67.0881992  15.3241817
 112.5774414  66.7318797  15.5345142 111.1408363  66.7495887  16.0117221
   1.4839670  74.2165814  83.6330871   0.7303378  73.6473212  83.4774875
   1.6187211  74.1828478  84.5801506   1.8946085  74.3741424  86.3651115
   2.6249473  74.1126712  86.9258819   1.2853030  73.6370146  86.4053183
   1.4866268  88.7183853  85.7832375   2.1244678  88.5990601  85.0795715
   1.3687111  89.6664697  85.8420327   1.0407537  86.4435307  82.8585583
   1.8270626  86.0254730  82.5076000   1.3046241  87.3481399  83.0267231
   1.2117614  91.8808158  77.5574240   0.5763447  91.9542784  78.2695145
   0.8815020  92.4701756  76.8793319   6.4415964  86.3810541  83.7618562
   7.1741136  85.8109757  83.9956391   5.6855319  85.9932141  84.2025067
   3.9641384  80.0932115  88.2213170   3.6324709  80.9627526  87.9974385
   3.3686998  79.7768399  88.9007201   3.8570047  84.8127201  85.3006520
   2.9486925  84.7442609  85.0065281   3.8057643  85.2899146  86.1288346
   5.7231694  83.0143639  87.0784394   5.0806074  83.3076172  86.4324189
   5.2186622  82.8996560  87.8837591   3.3771858  86.7606812  77.7670253
   4.2889714  86.9934199  77.5917951   2.8681505  87.3443857  77.2045332
   1.9841440  91.7432631  85.1583835   1.3550302  91.9078345  84.4559903
   1.5967102  92.1574240  85.9294799   5.8630672  92.6787069  82.5128199
   5.1781710  93.0585970  81.9625232   5.9474521  93.2882395  83.2460146
  12.3233424  89.5457732  83.6330871  11.5697133  88.9765130  83.4774875
  12.4580966  89.5120396  84.5801506   1.0624516  77.9401696  87.8384484
   0.7188785  78.8303337  87.7623594   1.4303479  77.7503353  86.9754069
   1.0274799  87.9310307  76.3456919   0.5121422  88.7014912  76.5845306
   0.7552107  87.2575443  76.9689980   6.0009073  90.6842662  78.2810092
   5.2238516  90.3453821  77.8365254   6.6800554  90.6895285  77.6065057
   0.8161102  85.8037399  78.1716700   0.5111237  86.1183548  79.0226843
   1.7691544  85.8818819  78.2144033   4.2400380  90.1576643  84.9376700
   3.5824054  90.8475904  85.0256829   5.0440779  90.5473075  85.2810687
   3.0505839  88.5121015  82.9880642   3.5637720  89.1451007  83.4902352
   3.7007062  87.9122211  82.6224002   3.8167635  93.4927017  81.1159785
   3.3629962  92.6517927  81.1724975   3.1861601  94.1288415  81.4534565
   2.7600554  84.4219003  82.3460452   2.0223311  83.9096389  82.6770695
   3.0127328  83.9819385  81.5343729   2.2600574  95.3303514  82.0509603
   2.5523548  95.8908571  81.3321969   2.7699195  95.6232075  82.8062762
   2.8612182  77.1995255  82.9402221   3.1671058  76.3392618  82.6528137
   3.5864786  77.7912875  82.7401215   6.3997570  89.6986368  80.7433014
   6.2615468  89.8887964  79.8154204   6.0433789  90.4605751  81.2001065
   6.4266950  91.7662895  85.7544286   6.8603456  91.6738184  86.6027340
   7.1398530  91.7420396  85.1164302   7.2882499  91.8086596  88.2877171
   7.4818389  92.7132406  88.5336446   7.1883117  91.3494015  89.1215756
   2.4035683  90.2813553  74.2788753   1.7864853  89.5560381  74.1821806
   1.9352171  91.0422913  73.9355828   8.5424562  88.3660262  84.9325075
   8.5314438  89.2484978  84.5619008   7.6741942  88.0131813  84.7379612
   1.7724585  91.4191584  80.8645207   0.8380864  91.5393047  80.6949911
   1.9501254  90.5164051  80.6005217   5.1597137  87.2608903  81.3995241
   5.6257589  88.0936895  81.3255544   5.6104637  86.7953885  82.1040500
   3.2273368  93.6052725  78.3981393   3.5033212  93.4909319  79.3075267
   2.3577867  93.2070210  78.3593566   3.1313800  79.6289490  85.4386142
   2.2176879  79.8593717  85.6068349   3.5606901  79.7127934  86.2900175
   2.9020258  87.8179382  87.9386036   2.2491708  88.0655290  87.2838489
   3.2800638  87.0043521  87.6048514   3.5014465  96.2338391  84.5622147
   4.4261012  96.0281253  84.4246598   3.3329768  95.9854793  85.4711488
   3.2909781  96.7524059  79.9184238   3.4646659  96.1870481  79.1658091
   3.7838672  97.5524954  79.7363728   9.1449172  89.5160482  81.5374538
   9.5880318  88.7667807  81.1393661   8.2675682  89.5070618  81.1548270
   4.2784953  96.0690823  77.0181136   4.9735858  96.6897516  77.2368451
   4.6208104  95.2186174  77.2933514   6.1776377  93.5190529  78.5468467
   6.7027701  93.8577802  77.8217787   6.0898729  92.5837544  78.3631602
   8.6882037  90.9865720  83.9296986   9.5228928  91.4255524  84.0934546
   8.8241166  90.5104373  83.1105231   5.7373543  88.5445455  89.8774473
   6.2127664  88.7373101  89.0693325   4.8139108  88.6004641  89.6317857
   0.5666353  76.9993581  84.3631204   0.8468107  76.3316770  84.9891630
   1.3516960  77.1922677  83.8505868   4.4375212  85.4211215  88.1102779
   5.3892635  85.5209313  88.1315003   4.2678662  84.6289484  88.6200863
   2.4589591  82.5066798  88.2962180   1.8639523  82.7871811  87.6008668
   2.1739288  82.9960699  89.0678921   1.5897082  96.4589725  77.0564812
   2.5227755  96.3935287  77.2597688   1.5020295  97.2945992  76.5979345
   4.2185098  95.7755595  74.0168760   4.1398730  95.4415459  74.9104518
   5.0394765  96.2677363  74.0160232   6.9163290  88.6417335  87.2245079
   6.8839610  87.7033335  87.4104762   7.5263913  88.7201371  86.4910903
   7.0657778  85.4328378  87.2703362   6.5496827  84.6486835  87.0833291
   7.9497727  85.1047095  87.4349881   4.7268505  79.1769394  83.2299174
   4.5293326  78.8684482  84.1142506   5.3368211  79.9031033  83.3597104
  12.7339839  89.7033342  86.3651115  13.4643228  89.4418630  86.9258819
  12.1246785  88.9662064  86.4053183  10.8155137  87.8441204  86.9625567
  10.0888300  87.7097169  86.3542058  10.4002423  88.1518033  87.7682285
   0.4842152  79.0578301  80.9795706   1.0373190  79.4773754  81.6385729
   0.7212238  78.1314049  81.0218662   3.8620959  81.1678826  80.4874370
   3.2819628  81.8263630  80.1052422   3.5956891  80.3456170  80.0761787
   2.3124525  80.5683883  82.6895690   2.8124303  80.6800418  81.8810009
   2.9560133  80.2644936  83.3296499   2.6445837  83.3278916  79.5430718
   1.7571692  83.6128567  79.3250913   3.0599826  83.1672680  78.6957995
   5.9960373  83.3525437  83.2585057   6.7720763  83.8421890  83.5309674
   5.2708507  83.7783491  83.7156927   8.4332931  84.0653056  84.3158998
   9.0277422  83.8248792  83.6052306   8.5059515  83.3460187  84.9432534
   1.7889050  93.0923591  73.6378738   2.4924900  93.2973593  74.2536394
   1.0651699  93.6600353  73.9027822   2.6186860  88.8433452  79.7581008
   2.5622062  89.3002004  78.9188641   3.1715203  88.0824137  79.5803851
   6.4291666  84.6323184  80.5831128   6.1728601  84.2319820  81.4139336
   5.8044534  85.3466978  80.4581267  10.7404004  87.3719257  83.0902419
  10.1803562  87.4412447  83.8633981  10.1347508  87.1960242  82.3701916
   3.6975748  93.5306120  75.6877198   4.5321352  93.0987319  75.5054673
   3.5360090  93.3588134  76.6154093   3.3521640  90.0338233  77.0533538
   3.2970444  89.8682505  76.1121982   2.7267695  90.7414266  77.2095727
  11.8801291 101.7727225  82.8585583  12.6664380 101.3546648  82.5076000
  12.1439995 102.6773317  83.0267231  17.2809718 101.7102458  83.7618562
  18.0134890 101.1401675  83.9956391  16.5249074 101.3224059  84.2025067
  14.8035139  95.4224032  88.2213170  14.4718463  96.2919443  87.9974385
  14.2080752  95.1060316  88.9007201   8.5391325  99.1619599  75.9543253
   8.7065727 100.0299836  76.3213724   8.3488494  99.3246881  75.0304542
  14.6963802 100.1419118  85.3006520  13.7880679 100.0734527  85.0065281
  14.6451398 100.6191063  86.1288346  16.5625448  98.3435557  87.0784394
  15.9199829  98.6368090  86.4324189  16.0580377  98.2288477  87.8837591
  14.2165612 102.0898730  77.7670253  15.1283468 102.3226117  77.5917951
  13.7075259 102.6735774  77.2045332  11.5601587  98.2656766  86.0160114
  10.6986066  98.5638020  86.3076852  11.5864021  98.4827165  85.0841147
  23.1627179 104.8749649  83.6330871  22.4090887 104.3057047  83.4774875
  23.2974720 104.8412314  84.5801506  11.9018270  93.2693613  87.8384484
  11.5582540  94.1595255  87.7623594  12.2697233  93.0795271  86.9754069
   9.4515664  98.1051925  81.4042157   8.5957261  97.7158776  81.2247796
   9.8642616  98.1843886  80.5441943  10.9814811  95.6398269  85.8033717
  10.4779606  95.6028404  84.9901522  11.2745418  96.5491011  85.8630374
   7.2257697  95.7236998  84.8099899   8.0910693  95.5279807  84.4505788
   7.2935206  95.4947350  85.7369256  11.6554856 101.1329317  78.1716700
  11.3504992 101.4475466  79.0226843  12.6085298 101.2110737  78.2144033
   4.8320016  97.9539206  82.1816266   5.4063768  97.7314388  81.4489459
   5.4190998  98.0227901  82.9344867   5.1589603  99.9843667  76.2012151
   4.3226915 100.3218354  76.5221426   5.0194373  99.8492647  75.2639288
   7.1342684  94.8280455  80.9091335   6.4807096  94.5129472  80.2847950
   7.0923158  94.2056196  81.6351158  10.3680424 101.3162389  85.2338983
   9.4502985 101.5377336  85.0760671  10.7840567 101.3908699  84.3750690
  13.5994309  99.7510921  82.3460452  12.8617066  99.2388307  82.6770695
  13.8521082  99.3111302  81.5343729  13.7005936  92.5287173  82.9402221
  14.0064813  91.6684536  82.6528137  14.4258541  93.1204793  82.7401215
   5.0327983  99.8290895  73.4010058   4.1557449  99.7079696  73.0372304
   5.5085736  99.0376973  73.1488946  11.5288559  97.9911815  83.2906784
  12.0257259  97.2381777  82.9707854  10.7575541  98.0276131  82.7249993
  19.3818317 103.6952180  84.9325075  19.3708193 104.5776896  84.5619008
  18.5135696 103.3423731  84.7379612   8.1123528 100.1329198  83.0178468
   7.7421316  99.5800238  83.7059374   8.6082620  99.5287331  82.4653468
  15.9990891 102.5900821  81.3995241  16.4651344 103.4228813  81.3255544
  16.4498392 102.1245803  82.1040500  13.9707554  94.9581408  85.4386142
  13.0570634  95.1885635  85.6068349  14.4000656  95.0419852  86.2900175
  13.7414013 103.1471300  87.9386036  13.0885463 103.3947207  87.2838489
  14.1194392 102.3335438  87.6048514   1.4894519  99.1046848  78.9662288
   1.1607225  98.2244227  78.7837394   1.8433889  99.0494516  79.8538678
   4.6036342  99.3919817  79.3337766   4.9432414  99.9205739  78.6116374
   5.0508462  99.7300224  80.1096333   7.9496254  94.8606181  87.2368157
   8.7722324  94.3866659  87.1147048   8.1934318  95.6396664  87.7366843
   6.5904489  97.8894439  77.5331059   7.3112851  98.2675692  77.0294776
   5.9669793  98.6083316  77.6366037  10.7335612  98.5939588  78.4689391
  10.9499226  99.4764226  78.1678219  10.2529679  98.2025801  77.7395033
   7.3331216  98.5427849  85.0941025   7.3192785  97.6468943  84.7573323
   8.0503644  98.5498513  85.7279311   9.1857347  98.9765189  87.1394153
   8.9275125  99.8982260  87.1378483   8.6542387  98.5795624  87.8294617
   6.7368112  97.4242229  80.3628596   6.8584023  96.4958876  80.5619483
   6.4470154  97.4380915  79.4506911   9.6059302  95.1097140  83.4995315
   9.6280999  95.1736473  82.5447295  10.0227361  94.2701649  83.6935822
  19.9842927 104.8452399  81.5374538  20.4274073 104.0959725  81.1393661
  19.1069437 104.8362536  81.1548270  16.5767297 103.8737373  89.8774473
  17.0521419 104.0665019  89.0693325  15.6532863 103.9296558  89.6317857
  11.1547514  95.9085216  88.8430307  11.6729458  96.6446243  88.5176796
  10.8002647  96.2149209  89.6777066  11.4060108  92.3285499  84.3631204
  11.6861862  91.6608688  84.9891630  12.1910715  92.5214594  83.8505868
  15.2768966 100.7503133  88.1102779  16.2286389 100.8501230  88.1315003
  15.1072417  99.9581401  88.6200863  13.2983346  97.8358716  88.2962180
  12.7033278  98.1163729  87.6008668  13.0133042  98.3252617  89.0678921
  17.7557044 103.9709252  87.2245079  17.7233364 103.0325253  87.4104762
  18.3657668 104.0493289  86.4910903  17.9051533 100.7620296  87.2703362
  17.3890581  99.9778752  87.0833291  18.7891481 100.4339012  87.4349881
  15.5662259  94.5061311  83.2299174  15.3687081  94.1976400  84.1142506
  16.1761965  95.2322950  83.3597104  23.5733594 105.0325259  86.3651115
  24.3036982 104.7710547  86.9258819  22.9640539 104.2953981  86.4053183
  21.6548891 103.1733122  86.9625567  20.9282055 103.0389087  86.3542058
  21.2396178 103.4809950  87.7682285   7.7783292 100.7655282  73.2027168
   6.8714747 100.4688394  73.2789881   8.0559273 100.4685100  72.3361454
   9.3945358  95.3092171  79.3571409   8.5846086  94.9639256  79.7326655
  10.0829775  94.9999715  79.9459021  11.3235906  94.3870218  80.9795706
  11.8766945  94.8065672  81.6385729  11.5605992  93.4605966  81.0218662
   6.5482077  97.6242217  73.3439147   7.4101241  97.9497115  73.6034964
   6.7332421  96.8373713  72.8312213  14.7014713  96.4970743  80.4874370
  14.1213382  97.1555547  80.1052422  14.4350646  95.6748088  80.0761787
  13.1518280  95.8975801  82.6895690  13.6518058  96.0092336  81.8810009
  13.7953887  95.5936854  83.3296499  13.4839591  98.6570834  79.5430718
  12.5965446  98.9420484  79.3250913  13.8993580  98.4964597  78.6957995
  16.8354127  98.6817355  83.2585057  17.6114517  99.1713807  83.5309674
  16.1102261  99.1075409  83.7156927  19.2726686  99.3944974  84.3158998
  19.8671177  99.1540710  83.6052306  19.3453270  98.6752105  84.9432534
  17.2685421  99.9615102  80.5831128  17.0122355  99.5611737  81.4139336
  16.6438289 100.6758896  80.4581267  21.5797759 102.7011175  83.0902419
  21.0197317 102.7704364  83.8633981  20.9741262 102.5252160  82.3701916
   7.5011520  94.8638260  76.6318856   7.4890190  95.8080100  76.7887127
   8.3934942  94.6808405  76.3378317  11.3163639  91.4581037  80.8864793
  10.5496035  90.9039523  81.0321475  11.7274344  91.5302905  81.7478944
   1.4839671  51.2227937  70.3576178   0.7303379  50.6535335  70.2020182
   1.6187212  51.1890601  71.3046812   1.8946086  51.3803546  73.0896422
   2.6249475  51.1188835  73.6504125   1.2853032  50.6432268  73.1298490
   1.4866269  65.7245976  72.5077682   2.1244679  65.6052723  71.8041022
   1.3687112  66.6726820  72.5665634   1.0407538  63.4497430  69.5830890
   1.8270627  63.0316853  69.2321307   1.3046242  64.3543522  69.7512538
   1.2117615  68.8870280  64.2819547   0.5763448  68.9604907  64.9940451
   0.8815022  69.4763879  63.6038626   6.4415965  63.3872663  70.4863868
   7.1741137  62.8171880  70.7201698   5.6855321  62.9994264  70.9270374
   3.9641385  57.0994237  74.9458477   3.6324710  57.9689648  74.7219692
   3.3686999  56.7830521  75.6252507   3.8570049  61.8189323  72.0251827
   2.9486926  61.7504732  71.7310588   3.8057645  62.2961268  72.8533652
   5.7231695  60.0205762  73.8029701   5.0806075  60.3138295  73.1569495
   5.2186624  59.9058682  74.6082897   3.3771859  63.7668935  64.4915560
   4.2889715  63.9996322  64.3163258   2.8681506  64.3505979  63.9290639
   1.6612626  68.1893563  78.1276853   2.0695982  67.7475973  77.3831485
   0.9389888  67.6146190  78.3811046   1.9841441  68.7494753  71.8829142
   1.3550304  68.9140468  71.1805209   1.5967103  69.1636363  72.6540106
   5.8630673  69.6849191  69.2373505   5.1781711  70.0648093  68.6870539
   5.9474522  70.2944518  69.9705453   1.1643142  60.7870538  77.1591583
   0.9204074  61.5412598  76.6225859   1.4403072  61.1655886  77.9938830
   3.1181605  67.3309150  75.8368849   3.3298500  67.9740910  75.1603230
   3.0711353  66.4971467  75.3690779   4.2327433  70.2081106  74.0091206
   5.0544876  69.8061293  73.7273888   4.2289835  70.1049340  74.9607322
  12.3233426  66.5519854  70.3576178  11.5697134  65.9827252  70.2020182
  12.4580967  66.5182519  71.3046812   1.4381768  72.3259623  78.1912640
   1.4200243  73.1468504  77.6992909   2.3601688  72.2013698  78.4162781
   1.0624517  54.9463818  74.5629790   0.7188787  55.8365460  74.4868901
   1.4303480  54.7565476  73.6999375   1.0274800  64.9372429  63.0702226
   0.5121423  65.7077034  63.3090613   0.7552108  64.2637566  63.6935287
   6.0009074  67.6904784  65.0055399   5.2238517  67.3515944  64.5610561
   6.6800555  67.6957407  64.3310364   0.8161103  62.8099522  64.8962007
   0.5111239  63.1245671  65.7472150   1.7691545  62.8880941  64.9389340
   4.2400381  67.1638765  71.6622007   3.5824055  67.8538027  71.7502136
   5.0440780  67.5535197  72.0055993   3.0505840  65.5183138  69.7125949
   3.5637722  66.1513130  70.2147658   3.7007064  64.9184334  69.3469309
   3.8167636  70.4989140  67.8405091   3.3629963  69.6580049  67.8970282
   3.1861603  71.1350538  68.1779872   2.7600556  61.4281126  69.0705759
   2.0223312  60.9158512  69.4016001   3.0127329  60.9881507  68.2589036
   2.2600575  72.3365636  68.7754910   2.5523550  72.8970693  68.0567275
   2.7699196  72.6294197  69.5308069   2.8612183  54.2057378  69.6647528
   3.1671060  53.3454741  69.3773443   3.5864788  54.7974998  69.4646522
   0.6699834  63.5830055  76.7628992   1.0249222  63.8101528  77.6223458
   1.3171965  63.9148432  76.1406247   6.3997571  66.7048491  67.4678321
   6.2615470  66.8950087  66.5399510   6.0433790  67.4667874  67.9246372
   6.4266951  68.7725018  72.4789592   6.8603457  68.6800307  73.3272647
   7.1398531  68.7482518  71.8409608   7.2882500  68.8148718  75.0122478
   7.4818390  69.7194529  75.2581753   7.1883118  68.3556137  75.8461063
   2.3497609  68.9655461  80.5863358   2.1983115  68.7366013  79.6693442
   2.3402288  69.9226063  80.5994704   2.4035684  67.2875675  61.0034060
   1.7864855  66.5622504  60.9067113   1.9352172  68.0485036  60.6601134
   4.0589816  71.9974584  78.6639840   4.0002362  71.3133804  77.9970423
   4.4609334  72.7393574  78.2120466   4.0607223  69.9614168  76.8953820
   3.1734002  69.6240089  77.0180219   4.6305774  69.2297199  77.1322585
   8.5424563  65.3722385  71.6570382   8.5314440  66.2547100  71.2864315
   7.6741943  65.0193936  71.4624919   1.7724587  68.4253707  67.5890514
   0.8380865  68.5455169  67.4195218   1.9501255  67.5226173  67.3250523
   5.1597138  64.2671026  68.1240548   5.6257590  65.0999018  68.0500850
   5.6104639  63.8016008  68.8285806   3.2273369  70.6114847  65.1226700
   3.5033213  70.4971442  66.0320574   2.3577868  70.2132332  65.0838873
   3.1313801  56.6351613  72.1631449   2.2176881  56.8655840  72.3313656
   3.5606902  56.7190057  73.0145481   2.9020259  64.8241505  74.6631343
   2.2491710  65.0717412  74.0083796   3.2800639  64.0105643  74.3293820
   2.5441490  71.6989501  81.2403651   3.0881394  72.3119459  80.7458605
   1.9628334  72.2569079  81.7570664   0.8299002  74.8210219  72.3718678
   0.7050142  74.0199959  71.8629624   1.4878094  75.3156412  71.8832648
   2.8933911  72.6219239  73.9998228   1.9464246  72.5024590  73.9276555
   3.2416684  71.7341737  74.0824490   3.5014466  73.2400514  71.2867453
   4.4261014  73.0343375  71.1491905   3.3329769  72.9916915  72.1956795
   3.2909782  73.7586181  66.6429545   3.4646660  73.1932604  65.8903397
   3.7838673  74.5587076  66.4609035   9.1449173  66.5222604  68.2619845
   9.5880319  65.7729930  67.8638968   8.2675684  66.5132741  67.8793577
   4.2784955  73.0752946  63.7426443   4.9735859  73.6959639  63.9613758
   4.6208105  72.2248297  64.0178821   6.1776378  70.5252651  65.2713774
   6.7027702  70.8639924  64.5463094   6.0898730  69.5899667  65.0876908
   5.8670284  71.1585555  80.5764972   5.0765828  71.1409694  80.0369471
   5.6303638  71.6973849  81.3314008   5.9868159  68.0078021  77.8897700
   6.0366164  67.8428029  78.8313223   5.8782082  67.1405280  77.4995581
   3.2771921  63.9908949  79.2057007   4.1781784  63.8515414  78.9141005
   3.3519896  64.1563404  80.1455185   7.4886356  70.4274963  78.1339722
   7.1971164  70.7904943  78.9703183   6.8758487  69.7141971  77.9553054
   8.6882038  67.9927843  70.6542292   9.5228929  68.4317647  70.8179852
   8.8241167  67.5166496  69.8350538   5.7373544  65.5507578  76.6019780
   6.2127666  65.7435224  75.7938631   4.8139109  65.6066763  76.3563164
   0.5666355  54.0055704  71.0876510   0.8468108  53.3378893  71.7136937
   1.3516962  54.1984799  70.5751174   4.4375213  62.4273338  74.8348086
   5.3892636  62.5271435  74.8560310   4.2678663  61.6351606  75.3446170
   2.4589592  59.5128921  75.0207486   1.8639525  59.7933934  74.3253975
   2.1739289  60.0022822  75.7924228   1.5897083  73.4651848  63.7810119
   2.5227756  73.3997409  63.9842994   1.5020296  74.3008115  63.3224652
   4.2185100  72.7817718  60.7414067   4.1398731  72.4477582  61.6349824
   5.0394766  73.2739486  60.7405539   6.9163291  65.6479457  73.9490385
   6.8839611  64.7095458  74.1350069   7.5263914  65.7263494  73.2156210
   7.0657779  62.4390501  73.9948668   6.5496828  61.6548957  73.8078597
   7.9497728  62.1109217  74.1595188   4.7268506  56.1831516  69.9544481
   4.5293327  55.8746605  70.8387813   5.3368212  56.9093155  70.0842411
  12.7339841  66.7095464  73.0896422  13.4643229  66.4480752  73.6504125
  12.1246786  65.9724186  73.1298490  10.8155138  64.8503327  73.6870873
  10.0888301  64.7159292  73.0787365  10.4002425  65.1580155  74.4927591
   0.4842153  56.0640423  67.7041012   1.0373191  56.4835877  68.3631035
   0.7212239  55.1376171  67.7463968   3.8620960  58.1740948  67.2119677
   3.2819629  58.8325752  66.8297729   3.5956893  57.3518293  66.8007094
   2.3124526  57.5746006  69.4140997   2.8124305  57.6862541  68.6055316
   2.9560134  57.2707059  70.0541805   2.6445838  60.3341039  66.2676025
   1.7571693  60.6190689  66.0496220   3.0599827  60.1734802  65.4203302
   5.9960374  60.3587560  69.9830364   6.7720764  60.8484012  70.2554981
   5.2708508  60.7845614  70.4402234   8.4332933  61.0715179  71.0404305
   9.0277424  60.8310915  70.3297613   8.5059516  60.3522310  71.6677841
   1.7889051  70.0985713  60.3624045   2.4924902  70.3035716  60.9781700
   1.0651700  70.6662475  60.6273128   2.6186862  65.8495575  66.4826315
   2.5622063  66.3064126  65.6433947   3.1715204  65.0886259  66.3049158
   6.4291668  61.6385307  67.3076435   6.1728602  61.2381942  68.1384642
   5.8044536  62.3529100  67.1826574  10.7404005  64.3781380  69.8147726
  10.1803563  64.4474569  70.5879288  10.1347509  64.2022364  69.0947222
   3.6975749  70.5368243  62.4122505   4.5321353  70.1049441  62.2299980
   3.5360092  70.3650256  63.3399399   3.3521641  67.0400356  63.7778844
   3.2970445  66.8744627  62.8367288   2.7267696  67.7476389  63.9341034
  12.3260024  81.0537894  72.5077682  12.9638434  80.9344641  71.8041022
  12.2080867  82.0018738  72.5665634   9.1349730  81.0065322  72.4439206
   8.7968242  80.8906387  71.5559741  10.0039498  80.6056487  72.4240212
   4.9936546  82.8600798  68.4336097   4.4301411  82.7690735  67.6652385
   4.8788941  82.0400703  68.9138590   9.6169513  82.1600174  78.4025412
   9.6058154  81.7652972  77.5305916   9.7790153  81.4266246  78.9959183
   2.5400978  84.3551990  71.2720318   3.3322270  84.0142814  70.8566617
   2.7797628  84.4646965  72.1922471  10.5736105  86.5271766  63.7450562
   9.9224084  87.1125846  63.3584576  11.3680467  87.0577961  63.8045600
   4.4991732  83.6160903  64.1437697   5.2722608  83.0689890  64.0050572
   4.8517131  84.4805152  64.3552158   6.3376774  84.9437285  77.3504596
   6.0466640  85.8482916  77.2351262   6.9733759  84.9853813  78.0648665
   7.2632981  82.3214134  73.9405956   7.8596553  82.0970156  73.2262918
   7.3207953  81.5798879  74.5431403   6.8358010  79.7753569  61.7756146
   7.0883530  79.2535090  61.0139609   5.8982569  79.6119715  61.8782830
  11.8801292  78.7789348  69.5830890  12.6664382  78.3608771  69.2321307
  12.1439997  79.6835440  69.7512538  12.0511370  84.2162198  64.2819547
  11.4157203  84.2896824  64.9940451  11.7208776  84.8055797  63.6038626
  17.2809720  78.7164581  70.4863868  18.0134891  78.1463798  70.7201698
  16.5249075  78.3286181  70.9270374   6.5554298  81.6781675  63.9780521
   6.4390556  81.0026579  64.6461606   6.6656558  81.1914049  63.1612674
   8.8985839  81.1391822  67.6827211   8.5344046  80.6122443  68.3940132
   9.7552955  80.7490291  67.5093696  14.8035140  72.4286155  74.9458477
  14.4718465  73.2981566  74.7219692  14.2080753  72.1122439  75.6252507
   8.5391326  76.1681722  62.6788559   8.7065729  77.0361958  63.0459030
   8.3488495  76.3309004  61.7549848  11.2966659  84.6298701  74.3454390
  10.9967383  85.5323740  74.2370197  10.9517719  84.3630884  75.1975542
   4.7479141  81.0812498  70.3791094   3.8229637  80.9488712  70.5868786
   4.9963554  81.8606717  70.8761036  14.6963803  77.1481241  72.0251827
  13.7880681  77.0796649  71.7310588  14.6451399  77.6253186  72.8533652
   8.5180547  78.6239379  63.6635226   8.3980172  79.0696430  64.5020706
   7.8233135  78.9724697  63.1048764   2.1087952  80.7245771  71.2134883
   2.2380333  80.9780250  72.1274295   1.4285403  81.3173479  70.8939538
   6.2787439  91.3943021  67.3125357   6.2011469  92.3450846  67.3913838
   5.6749083  91.0488894  67.9700284   8.7704669  78.5670887  79.9686724
   7.9938003  79.1264807  79.9589589   9.4095232  79.0527670  80.4901594
  16.5625450  75.3497679  73.8029701  15.9199830  75.6430213  73.1569495
  16.0580378  75.2350600  74.6082897  14.2165613  79.0960853  64.4915560
  15.1283469  79.3288239  64.3163258  13.7075260  79.6797897  63.9290639
   7.0251041  81.3756340  79.5304691   7.7665726  81.9141384  79.2539515
   6.3188027  82.0022629  79.6876243  12.5006381  83.5185480  78.1276853
  12.9089737  83.0767891  77.3831485  11.7783642  82.9438108  78.3811046
   8.8537451  78.4558087  75.5010410   9.6998646  78.8797501  75.6445059
   8.7936089  77.7991712  76.1948973  12.8235196  84.0786671  71.8829142
  12.1944058  84.2432385  71.1805209  12.4360858  84.4928281  72.6540106
  16.7024427  85.0141109  69.2373505  16.0175466  85.3940010  68.6870539
  16.7868277  85.6236436  69.9705453  12.0036896  76.1162456  77.1591583
  11.7597828  76.8704516  76.6225859  12.2796827  76.4947803  77.9938830
  13.9575359  82.6601068  75.8368849  14.1692254  83.3032828  75.1603230
  13.9105107  81.8263385  75.3690779  11.5601588  75.2718889  72.7405421
  10.6986067  75.5700142  73.0322159  11.5864023  75.4889288  71.8086454
   8.3763157  83.8161079  69.1479227   8.8401503  84.0948782  68.3583849
   8.1119956  82.9144524  68.9652317   5.2687239  83.3632561  72.0858990
   5.8388596  83.7919829  71.4476474   5.8595350  83.0815145  72.7843176
   7.3132044  79.9384232  65.9568792   8.0156087  80.3905275  66.4242718
   6.9812672  79.2968050  66.5848685   5.7612405  78.5295988  80.3320001
   5.1311066  79.2112269  80.5655398   5.6548493  78.4179070  79.3873139
  15.0721187  85.5373023  74.0091206  15.8938631  85.1353211  73.7273888
  15.0683590  85.4341258  74.9607322   3.0072123  78.5612363  68.2169402
   2.2103286  78.6731058  68.7352898   2.7797715  78.8999016  67.3510293
   8.8377790  85.0857067  76.1651917   8.9022223  85.5477474  77.0010088
   8.1288714  84.4554432  76.2934226  23.1627180  81.8811772  70.3576178
  22.4090888  81.3119170  70.2020182  23.2974721  81.8474436  71.3046812
   8.5525808  86.7525174  66.0330897   8.4171483  87.5976710  66.4615745
   9.0935621  86.9544452  65.2696831   5.0393148  72.8316754  82.6945252
   4.6460093  72.2782953  83.3692896   5.8559288  73.1427333  83.0851770
   2.0055206  84.2700612  66.6058822   2.5179726  85.0643862  66.7564387
   2.6577918  83.5726903  66.5392424   3.8150090  87.3866369  68.6881575
   3.9916719  88.3084333  68.5002559   4.6106924  87.0724788  69.1175955
   7.9561109  74.2474633  80.2865509   8.6970822  74.8481786  80.2069971
   8.1879032  73.5052271  79.7283551   3.1002447  79.4331000  78.5643738
   2.9855962  78.5316258  78.8650837   2.2446965  79.6794697  78.2128555
  10.1794285  87.3748741  80.1631239   9.7358139  86.5885119  79.8452144
  10.8411498  87.5627891  79.4975130   4.9381406  88.9044542  74.6891918
   5.4888831  88.7761606  73.9168912   4.0992882  89.2039431  74.3386810
  12.2775523  87.6551541  78.1912640  12.2593998  88.4760422  77.6992909
  13.1995443  87.5305616  78.4162781   8.7348577  85.1695670  79.0336149
   9.2676914  84.4083958  78.8035457   8.2062658  84.8769322  79.7760303
  11.9018272  70.2755736  74.5629790  11.5582541  71.1657378  74.4868901
  12.2697234  70.0857394  73.6999375  11.8668554  80.2664347  63.0702226
  11.3515178  81.0368952  63.3090613  11.5945863  79.5929483  63.6935287
   9.4515665  75.1114048  68.1287464   8.5957262  74.7220898  67.9493103
   9.8642617  75.1906009  67.2687249  10.9814812  72.6460391  72.5279024
  10.4779608  72.6090526  71.7146829  11.2745419  73.5553134  72.5875680
   7.2257698  72.7299121  71.5345205   8.0910695  72.5341930  71.1751095
   7.2935207  72.5009473  72.4614562  16.8402829  83.0196702  65.0055399
  16.0632271  82.6807861  64.5610561  17.5194310  83.0249325  64.3310364
  11.6554858  78.1391439  64.8962007  11.3504993  78.4537588  65.7472150
  12.6085300  78.2172859  64.9389340  10.1001289  84.2981663  66.5454961
   9.5722651  83.5634422  66.2328198   9.5988792  85.0756339  66.2994929
  15.0794135  82.4930683  71.6622007  14.4217810  83.1829944  71.7502136
  15.8834535  82.8827115  72.0055993   4.8320017  74.9601329  68.9061572
   5.4063769  74.7376510  68.1734765   5.4190999  75.0290023  69.6590174
  13.8899594  80.8475056  69.7125949  14.4031476  81.4805048  70.2147658
  14.5400818  80.2476251  69.3469309   5.1589604  76.9905790  62.9257457
   4.3226916  77.3280476  63.2466732   5.0194374  76.8554770  61.9884594
   7.1342685  71.8342578  67.6336642   6.4807097  71.5191595  67.0093256
   7.0923159  71.2118318  68.3596465   8.2453890  82.1161873  59.5489934
   7.3380951  81.8851126  59.7481083   8.7424922  81.3199492  59.7363915
  11.1521969  90.8259380  62.4686620  10.4783667  91.1291077  63.0771578
  11.5387790  91.6288460  62.1192077  10.3680425  78.3224511  71.9584289
   9.4502986  78.5439458  71.8005977  10.7840569  78.3970822  71.0995997
  11.1515473  79.7215927  67.0886970  11.8987292  80.2337324  66.7794092
  11.4207062  79.3999980  67.9491363   9.4242123  82.2174468  64.0713924
   8.5153342  81.9333501  64.1686394   9.4537207  82.6373546  63.2117231
  14.6561390  85.8281057  67.8405091  14.2023718  84.9871967  67.8970282
  14.0255357  86.4642456  68.1779872  13.5994310  76.7573043  69.0705759
  12.8617067  76.2450429  69.4016001  13.8521084  76.3173425  68.2589036
  13.0994330  87.6657554  68.7754910  13.3917304  88.2262611  68.0567275
  13.6092950  87.9586115  69.5308069  13.7005937  69.5349295  69.6647528
  14.0064814  68.6746659  69.3773443  14.4258542  70.1266915  69.4646522
   7.9727017  79.8303088  70.1723719   8.0275627  78.8776925  70.0966196
   7.1618219  79.9862527  70.6565018   9.1218211  83.7583211  61.4102002
   8.6837641  83.0419070  60.9507640   9.8628652  83.9859326  60.8487094
   5.9119377  78.4480148  67.9314098   5.0987243  78.7474319  68.3379290
   6.4078371  78.0535837  68.6488580   8.0627955  88.4437905  69.8648363
   8.0204134  88.6698751  68.9356895   8.9790654  88.2101280  70.0134164
  11.5093589  78.9121973  76.7628992  11.8642976  79.1393446  77.6223458
  12.1565720  79.2440349  76.1406247  17.2391326  82.0340408  67.4678321
  17.1009224  82.2242004  66.5399510  16.8827544  82.7959791  67.9246372
   5.4033452  76.0198504  73.5475333   6.0432831  75.8787263  72.8498296
   4.5710982  75.7333017  73.1713935  17.2660705  84.1016935  72.4789592
  17.6997212  84.0092225  73.3272647  17.9792286  84.0774436  71.8409608
   6.1793756  85.3200934  69.6610325   6.9734354  84.8251254  69.4592900
   5.4685448  84.7918797  69.2978031  10.9988600  87.7019030  74.0122693
  11.0525622  88.2709966  74.7800409  10.1303382  87.8720915  73.6476730
   2.4876519  79.4644016  65.7370078   1.5574107  79.4028471  65.9540040
   2.5833991  78.9419969  64.9406719   2.4062068  75.9898829  68.3248320
   2.6668885  76.9044162  68.2157480   3.2279241  75.5223271  68.4744933
   3.8786994  77.4036586  75.4947144   4.5510047  77.1953948  74.8459793
   3.0516780  77.2058672  75.0552377  18.1276255  84.1440636  75.0122478
  18.3212145  85.0486447  75.2581753  18.0276873  83.6848055  75.8461063
   9.7812566  74.0298527  77.5112805   9.1340481  74.7288476  77.4177282
  10.5513581  74.4634671  77.8789053  13.1891363  84.2947379  80.5863358
  13.0376870  84.0657931  79.6693442  13.1796043  85.2517980  80.5994704
   9.9576700  81.8679292  75.5709625  10.8868760  82.0190451  75.3978592
   9.5367730  81.9563312  74.7158271   8.7565032  85.8929956  73.3408163
   8.6176117  85.5248740  74.2134101   7.9679628  86.4077595  73.1692120
   9.3513184  90.9939052  64.6833699   9.5264939  90.5227096  65.4979322
   8.6645972  91.6204819  64.9114960  10.3070247  85.2711559  70.7297000
   9.9720079  85.2312329  71.6254650   9.8074193  84.6056275  70.2567411
   4.2814491  80.6779189  76.2549582   4.1434289  79.9459428  76.8561121
   5.1919414  80.5888089  75.9733769  13.2429438  82.6167593  61.0034060
  12.6258609  81.8914421  60.9067113  12.7745927  83.3776953  60.6601134
   6.9096791  80.3899148  75.7433261   7.6196410  79.7492340  75.7019880
   6.8666100  80.6412043  76.6659442  14.8983570  87.3266501  78.6639840
  14.8396116  86.6425722  77.9970423  15.3003089  88.0685491  78.2120466
   5.6225725  77.3764366  77.5628901   5.0863082  76.9255104  78.2150497
   5.0342434  77.5110275  76.8199365   3.9174269  94.1428415  71.4573559
   4.1570867  94.7746939  72.1352578   3.0743465  93.7916455  71.7438919
   5.0327984  76.8353017  60.1255364   4.1557451  76.7141818  59.7617611
   5.5085737  76.0439096  59.8734253  14.9000977  85.2906085  76.8953820
  14.0127756  84.9532007  77.0180219  15.4699528  84.5589117  77.1322585
   1.3564847  76.5120374  74.6481895   1.2723035  75.9046043  73.9132305
   0.5347553  77.0029392  74.6491391   8.4302131  89.9507538  73.8615063
   8.3572302  90.7562509  74.3734368   7.9879524  90.1499503  73.0363085
   8.2191910  89.1879308  67.3717885   7.4359432  89.7300988  67.4656109
   8.9184656  89.7053287  67.7712126  11.5288561  74.9973937  70.0152090
  12.0257260  74.2443899  69.6953160  10.7575542  75.0338254  69.4495299
  19.3818318  80.7014303  71.6570382  19.3708194  81.5839018  71.2864315
  18.5135697  80.3485854  71.4624919  10.8900814  89.8494372  76.0173222
  11.6028787  90.4841837  75.9449123  10.3990843  89.9458238  75.2013224
  12.6118341  83.7545624  67.5890514  11.6774620  83.8747087  67.4195218
  12.7895010  82.8518091  67.3250523   8.1123529  77.1391320  69.7423775
   7.7421317  76.5862361  70.4304680   8.6082622  76.5349454  69.1898775
  15.9990893  79.5962944  68.1240548  16.4651345  80.4290935  68.0500850
  16.4498393  79.1307925  68.8285806   5.9412728  87.5988815  76.8378793
   6.6422187  88.2325298  76.9908187   5.4707843  87.9403547  76.0774432
  14.0667124  85.9406765  65.1226700  14.3426968  85.8263360  66.0320574
  13.1971622  85.5424250  65.0838873  13.9707555  71.9643531  72.1631449
  13.0570635  72.1947757  72.3313656  14.4000657  72.0481975  73.0145481
  13.7414014  80.1533423  74.6631343  13.0885464  80.4009330  74.0083796
  14.1194394  79.3397561  74.3293820  10.7021188  90.1893116  68.7659513
  10.8843582  89.3714772  69.2287266  11.5254174  90.4060808  68.3284403
  11.0363353  89.1161301  66.0274562  11.5651120  88.6053756  65.4144724
  11.2991573  88.8003831  66.8920095   9.7901587  80.8953234  81.1497380
   9.1142224  80.7947363  81.8199755  10.6129221  80.7392447  81.6133377
   1.5380446  87.1325170  73.7709895   2.1233883  86.3868858  73.9037800
   1.3405284  87.4429127  74.6546559   4.3919101  90.1676418  68.7872338
   3.7229476  90.6522545  68.3036378   4.2531971  90.4145638  69.7015716
   8.5324370  92.2020161  75.3854996   9.0842678  92.3651783  76.1504081
   8.8730563  92.7924599  74.7135021   3.5088863  74.5495311  75.9876881
   3.5730189  75.4110142  75.5754279   3.4455983  73.9369313  75.2549239
   2.9841135  76.6218443  79.6349915   3.6113174  76.2395521  80.2487439
   2.1269054  76.4032645  80.0005608  13.3835244  87.0281419  81.2403651
  13.9275148  87.6411377  80.7458605  12.8022089  87.5860997  81.7570664
  11.6692757  90.1502137  72.3718678  11.5443896  89.3491876  71.8629624
  12.3271848  90.6448330  71.8832648   3.2900925  76.5050869  71.5495819
   2.5687511  77.1186837  71.4103292   4.0794181  77.0408634  71.4712464
  13.7327665  87.9511157  73.9998228  12.7858001  87.8316508  73.9276555
  14.0810438  87.0633655  74.0824490   6.0927239  73.8405296  77.8236470
   6.6161641  74.0867592  78.5862780   5.8739572  74.6725330  77.4039608
   1.4894520  76.1108970  65.6907595   1.1607226  75.2306349  65.5082701
   1.8433891  76.0556639  66.5783984  10.7374099  87.7463873  70.2002581
  10.5899061  86.8180580  70.3810151  11.5627592  87.7683964  69.7159656
   4.6036343  76.3981940  66.0583073   4.9432415  76.9267861  65.3361681
   5.0508463  76.7362346  66.8341639  14.3408221  88.5692432  71.2867453
  15.2654768  88.3635293  71.1491905  14.1723524  88.3208833  72.1956795
   7.2979784  74.7818991  75.5086141   6.9576604  73.9826804  75.9106821
   6.5918790  75.0820702  74.9362974   7.9496256  71.8668303  73.9613464
   8.7722325  71.3928781  73.8392354   8.1934319  72.6458787  74.4612150
   6.5904490  74.8956562  64.2576366   7.3112853  75.2737814  63.7540082
   5.9669794  75.6145438  64.3611343  10.7335613  75.6001711  65.1934698
  10.9499227  76.4826348  64.8923526  10.2529680  75.2087924  64.4640340
   5.4734834  78.5587424  71.7705442   5.3279415  78.8727727  72.6629724
   4.9960038  79.1772324  71.2176341   7.3331217  75.5489972  71.8186332
   7.3192786  74.6531065  71.4818630   8.0503645  75.5560636  72.4524618
   9.1857348  75.9827312  73.8639459   8.9275126  76.9044383  73.8623790
   8.6542388  75.5857747  74.5539924  14.1303537  89.0878099  66.6429545
  14.3040414  88.5224522  65.8903397  14.6232428  89.8878994  66.4609035
   6.7368113  74.4304352  67.0873902   6.8584024  73.5020998  67.2864790
   6.4470156  74.4443038  66.1752218   9.6059304  72.1159263  70.2240622
   9.6281000  72.1798596  69.2692602  10.0227363  71.2763771  70.4181128
  19.9842928  81.8514522  68.2619845  20.4274074  81.1021847  67.8638968
  19.1069438  81.8424658  67.8793577  15.1178709  88.4044864  63.7426443
  15.8129614  89.0251556  63.9613758  15.4601859  87.5540215  64.0178821
  17.0170132  85.8544569  65.2713774  17.5421456  86.1931842  64.5463094
  16.9292485  84.9191584  65.0876908   8.6790181  89.7678643  77.4003651
   8.9877307  89.5227789  78.2726350   9.4765663  89.9725281  76.9122521
   8.7010793  91.9216552  69.6309027   8.2615783  91.4292931  70.3241884
   9.4518910  91.3789520  69.3901102   1.1803132  88.1128093  69.6333655
   2.0061152  87.8131865  69.2532299   0.8297184  87.3435716  70.0823444
   6.1484665  87.4654561  71.7031329   5.5264675  86.8025266  71.4033557
   6.8189532  87.4915693  71.0204977   6.2209193  75.9436349  81.2963835
   6.2697348  76.8198472  80.9141604   6.7631707  75.4013743  80.7235478
  16.7064038  86.4877473  80.5764972  15.9159582  86.4701612  80.0369471
  16.4697393  87.0265766  81.3314008  16.8261913  83.3369939  77.8897700
  16.8759918  83.1719947  78.8313223  16.7175837  82.4697198  77.4995581
   5.7098172  86.0158485  65.1789789   5.8586293  86.6993949  64.5256462
   6.5164616  85.9963575  65.6939245  14.1165676  79.3200867  79.2057007
  15.0175539  79.1807332  78.9141005  14.1913650  79.4855322  80.1455185
   8.4508481  76.6967722  78.0510193   7.5811791  76.9901288  77.7792782
   8.6867962  77.2808167  78.7717457  18.3280110  85.7566881  78.1339722
  18.0364919  86.1196861  78.9703183  17.7152242  85.0433889  77.9553054
  19.5275793  83.3219760  70.6542292  20.3622684  83.7609564  70.8179852
  19.6634921  82.8458414  69.8350538  16.5767299  80.8799495  76.6019780
  17.0521420  81.0727142  75.7938631  15.6532864  80.9358681  76.3563164
   3.4650805  82.0423662  66.1850858   3.2196847  81.1385992  66.3831068
   3.6346720  82.0440813  65.2430336  11.1547515  72.9147339  75.5675614
  11.6729459  73.6508366  75.2422102  10.8002648  73.2211332  76.4022373
   2.7346453  77.7752020  63.6837020   2.0415698  77.8496375  63.0277056
   2.4898205  77.0112364  64.2058537  11.4060109  69.3347621  71.0876510
  11.6861863  68.6670810  71.7136937  12.1910716  69.5276717  70.5751174
   9.2093578  88.5106615  62.6501537   8.6367545  89.1296802  62.1972009
   9.7826371  89.0605977  63.1841459  15.2768968  77.7565255  74.8348086
  16.2286390  77.8563353  74.8560310  15.1072418  76.9643524  75.3446170
  13.2983347  74.8420839  75.0207486  12.7033279  75.1225851  74.3253975
  13.0133044  75.3314739  75.7924228  12.4290837  88.7943765  63.7810119
  13.3621511  88.7289327  63.9842994  12.3414050  89.6300032  63.3224652
  15.0578854  88.1109636  60.7414067  14.9792486  87.7769499  61.6349824
  15.8788521  88.6031404  60.7405539  17.7557045  80.9771375  73.9490385
  17.7233365  80.0387376  74.1350069  18.3657669  81.0555412  73.2156210
   9.5940376  79.8467428  59.9917589  10.5399481  79.7173636  60.0606007
   9.2154621  79.1082090  60.4687017  17.9051534  77.7682418  73.9948668
  17.3890582  76.9840875  73.8078597  18.7891482  77.4401135  74.1595188
  15.5662261  71.5123434  69.9544481  15.3687082  71.2038522  70.8387813
  16.1761966  72.2385073  70.0842411  23.5733595  82.0387382  73.0896422
  24.3036984  81.7772670  73.6504125  22.9640541  81.3016104  73.1298490
  21.6548892  80.1795244  73.6870873  20.9282056  80.0451209  73.0787365
  21.2396179  80.4872073  74.4927591   9.4779069  83.8985174  81.4518246
  10.3982078  84.0763773  81.6458293   9.4428652  82.9541219  81.2997945
   7.7783293  77.7717404  59.9272474   6.8714749  77.4750517  60.0035188
   8.0559274  77.4747222  59.0606761   2.4741141  81.8086209  74.0941027
   2.6927151  82.7403317  74.1129061   2.8866915  81.4494183  74.8795831
   9.3945359  72.3154294  66.0816716   8.5846087  71.9701379  66.4571962
  10.0829776  72.0061838  66.6704327  11.3235907  71.3932341  67.7041012
  11.8766946  71.8127794  68.3631035  11.5605994  70.4668089  67.7463968
   7.3469007  77.3819415  83.4843776   7.2465733  78.3313771  83.4155867
   7.1290549  77.0537653  82.6119846   6.5482078  74.6304340  60.0684454
   7.4101242  74.9559238  60.3280271   6.7332422  73.8435835  59.5557519
  14.7014714  73.5032866  67.2119677  14.1213383  74.1617670  66.8297729
  14.4350647  72.6810211  66.8007094  13.1518281  72.9037924  69.4140997
  13.6518059  73.0154458  68.6055316  13.7953889  72.5998977  70.0541805
   7.2100277  80.8116553  82.3008838   6.7267358  81.6116913  82.5072727
   7.2961216  80.8224498  81.3476282   0.4786236  82.6444933  70.2230657
   0.4556924  82.7432620  69.2712540   0.7886873  83.4910084  70.5447823
   3.1373614  84.7021088  74.3377272   4.0916868  84.6705030  74.2707203
   2.9386138  84.2411712  75.1527498   3.7272996  83.2722204  76.9048069
   4.5465885  83.7666283  76.9282907   4.0009804  82.3554172  76.8765637
  13.4839592  75.6632956  66.2676025  12.5965447  75.9482607  66.0496220
  13.8993582  75.5026720  65.4203302  16.8354129  75.6879477  69.9830364
  17.6114519  76.1775930  70.2554981  16.1102263  76.1137532  70.4402234
  19.2726687  76.4007097  71.0404305  19.8671178  76.1602833  70.3297613
  19.3453271  75.6814227  71.6677841   1.4923843  90.2440708  71.3547470
   1.3578311  89.4841108  70.7885468   1.0755905  90.9681607  70.8876258
  12.6282806  85.4277631  60.3624045  13.3318656  85.6327634  60.9781700
  11.9045455  85.9954393  60.6273128  13.4580616  81.1787492  66.4826315
  13.4015818  81.6356044  65.6433947  14.0108959  80.4178177  66.3049158
  17.2685422  76.9677224  67.3076435  17.0122356  76.5673860  68.1384642
  16.6438290  77.6821018  67.1826574  21.5797760  79.7073297  69.8147726
  21.0197318  79.7766487  70.5879288  20.9741263  79.5314282  69.0947222
   4.6492969  91.1410025  71.5665912   4.5325353  92.0855457  71.4644602
   3.8285415  90.8383586  71.9551711  14.5369503  85.8660160  62.4122505
  15.3715107  85.4341359  62.2299980  14.3753846  85.6942174  63.3399399
  14.1915396  82.3692274  63.7778844  14.1364199  82.2036545  62.8367288
  13.5661451  83.0768307  63.9341034  11.5061303  84.6741185  83.1032407
  12.3752462  84.8481838  82.7419042  11.0268054  85.4935602  82.9808136
   7.5011521  71.8700383  63.3564163   7.4890191  72.8142223  63.5132433
   8.3934943  71.6870528  63.0623624   5.6747483  91.7938286  74.7821841
   6.5774730  91.8261897  75.0988336   5.4484853  90.8638737  74.7968176
   7.4301085  90.5469273  71.4431919   6.4796716  90.5471135  71.3296292
   7.7333571  89.8002008  70.9267954  11.3163640  68.4643159  67.6110099
  10.5496036  67.9101646  67.7566782  11.7274345  68.5365028  68.4724251
   3.3205401  74.7527955  81.7015281   4.1836863  74.3964760  81.9118605
   2.7470812  74.4141850  82.3890685  23.1653778  96.3829811  72.5077682
  23.8032188  96.2636559  71.8041022  23.0474621  97.3310655  72.5665634
  19.9743485  96.3357240  72.4439206  19.6361996  96.2198304  71.5559741
  20.8433253  95.9348405  72.4240212  15.8330300  98.1892716  68.4336097
  15.2695166  98.0982653  67.6652385  15.7182695  97.3692620  68.9138590
  20.4563268  97.4892091  78.4025412  20.4451908  97.0944890  77.5305916
  20.6183907  96.7558164  78.9959183  13.3794732  99.6843908  71.2720318
  14.1716024  99.3434732  70.8566617  13.6191382  99.7938883  72.1922471
  21.4129859 101.8563684  63.7450562  20.7617839 102.4417764  63.3584576
  22.2074222 102.3869879  63.8045600  15.3385486  98.9452821  64.1437697
  16.1116362  98.3981808  64.0050572  15.6910885  99.8097070  64.3552158
  17.1770529 100.2729203  77.3504596  16.8860395 101.1774834  77.2351262
  17.8127513 100.3145731  78.0648665  18.1026736  97.6506052  73.9405956
  18.6990308  97.4262074  73.2262918  18.1601707  96.9090797  74.5431403
  17.6751764  95.1045487  61.7756146  17.9277285  94.5827008  61.0139609
  16.7376323  94.9411632  61.8782830  22.7195047  94.1081265  69.5830890
  23.5058136  93.6900688  69.2321307  22.9833751  95.0127357  69.7512538
  22.8905124  99.5454116  64.2819547  22.2550957  99.6188742  64.9940451
  22.5602531 100.1347714  63.6038626  28.1203474  94.0456498  70.4863868
  28.8528646  93.4755715  70.7201698  27.3642830  93.6578099  70.9270374
  17.3948053  97.0073593  63.9780521  17.2784311  96.3318496  64.6461606
  17.5050313  96.5205967  63.1612674  19.7379594  96.4683740  67.6827211
  19.3737801  95.9414361  68.3940132  20.5946710  96.0782209  67.5093696
  25.6428894  87.7578073  74.9458477  25.3112219  88.6273484  74.7219692
  25.0474508  87.4414357  75.6252507  19.3785081  91.4973640  62.6788559
  19.5459483  92.3653876  63.0459030  19.1882250  91.6600921  61.7549848
  22.1360414  99.9590619  74.3454390  21.8361137 100.8615657  74.2370197
  21.7911473  99.6922802  75.1975542  15.5872895  96.4104415  70.3791094
  14.6623392  96.2780630  70.5868786  15.8357309  97.1898635  70.8761036
  25.5357558  92.4773159  72.0251827  24.6274435  92.4088567  71.7310588
  25.4845153  92.9545104  72.8533652  19.3574302  93.9531297  63.6635226
  19.2373927  94.3988348  64.5020706  18.6626890  94.3016615  63.1048764
  12.9481706  96.0537689  71.2134883  13.0774088  96.3072168  72.1274295
  12.2679158  96.6465397  70.8939538  19.6098423  93.8962804  79.9686724
  18.8331758  94.4556724  79.9589589  20.2488987  94.3819587  80.4901594
  27.4019204  90.6789597  73.8029701  26.7593584  90.9722130  73.1569495
  26.8974133  90.5642517  74.6082897  25.0559368  94.4252770  64.4915560
  25.9677224  94.6580157  64.3163258  24.5469015  95.0089815  63.9290639
  17.8644796  96.7048258  79.5304691  18.6059480  97.2433302  79.2539515
  17.1581781  97.3314546  79.6876243  23.3400135  98.8477398  78.1276853
  23.7483491  98.4059809  77.3831485  22.6177397  98.2730026  78.3811046
  19.6931205  93.7850005  75.5010410  20.5392401  94.2089418  75.6445059
  19.6329843  93.1283629  76.1948973  23.6628950  99.4078589  71.8829142
  23.0337813  99.5724303  71.1805209  23.2754612  99.8220198  72.6540106
  27.5418182 100.3433027  69.2373505  26.8569220 100.7231928  68.6870539
  27.6262031 100.9528353  69.9705453  22.8430651  91.4454373  77.1591583
  22.5991583  92.1996434  76.6225859  23.1190581  91.8239721  77.9938830
  24.7969114  97.9892986  75.8368849  25.0086009  98.6324746  75.1603230
  24.7498862  97.1555302  75.3690779  22.3995343  90.6010806  72.7405421
  21.5379822  90.8992060  73.0322159  22.4257777  90.8181205  71.8086454
  19.2156912  99.1452997  69.1479227  19.6795257  99.4240700  68.3583849
  18.9513710  98.2436441  68.9652317  16.1080993  98.6924478  72.0858990
  16.6782350  99.1211747  71.4476474  16.6989105  98.4107063  72.7843176
  18.1525798  95.2676149  65.9568792  18.8549841  95.7197193  66.4242718
  17.8206426  94.6259968  66.5848685  16.6006160  93.8587906  80.3320001
  15.9704820  94.5404187  80.5655398  16.4942247  93.7470987  79.3873139
  11.8951132  93.5259702  71.2585925  11.1050186  93.7817230  70.7826036
  12.3862379  94.3408040  71.3637966  25.9114942 100.8664941  74.0091206
  26.7332385 100.4645128  73.7273888  25.9077344 100.7633175  74.9607322
  13.8465877  93.8904281  68.2169402  13.0497041  94.0022975  68.7352898
  13.6191470  94.2290933  67.3510293  19.6771545 100.4148984  76.1651917
  19.7415977 100.8769392  77.0010088  18.9682469  99.7846349  76.2934226
  10.1788835  93.7790192  73.6900916  10.4296873  94.6637202  73.9558492
  10.7148383  93.5994794  72.9176008  34.0020935  97.2103690  70.3576178
  33.2484643  96.6411088  70.2020182  34.1368476  97.1766354  71.3046812
  19.3919563 102.0817092  66.0330897  19.2565237 102.9268628  66.4615745
  19.9329375 102.2836370  65.2696831  15.8786902  88.1608672  82.6945252
  15.4853848  87.6074870  83.3692896  16.6953043  88.4719250  83.0851770
  12.8448960  99.5992530  66.6058822  13.3573481 100.3935780  66.7564387
  13.4971673  98.9018820  66.5392424  14.6543845 102.7158286  68.6881575
  14.8310473 103.6376251  68.5002559  15.4500678 102.4016705  69.1175955
  18.7954863  89.5766551  80.2865509  19.5364577  90.1773704  80.2069971
  19.0272786  88.8344189  79.7283551  13.9396201  94.7622918  78.5643738
  13.8249716  93.8608175  78.8650837  13.0840719  95.0086615  78.2128555
  21.0188039 102.7040658  80.1631239  20.5751893 101.9177037  79.8452144
  21.6805253 102.8919809  79.4975130  23.1169277 102.9843458  78.1912640
  23.0987752 103.8052339  77.6992909  24.0389197 102.8597534  78.4162781
  19.5742331 100.4987588  79.0336149  20.1070668  99.7375876  78.8035457
  19.0456412 100.2061240  79.7760303  22.7412026  85.6047654  74.5629790
  22.3976296  86.4949295  74.4868901  23.1090989  85.4149311  73.6999375
  10.8097877  97.9281184  67.3818393  11.6473099  98.3378193  67.1652100
  10.9876144  96.9880626  67.3518586  22.7062309  95.5956265  63.0702226
  22.1908932  96.3660869  63.3090613  22.4339617  94.9221401  63.6935287
  20.2909420  90.4405966  68.1287464  19.4351016  90.0512816  67.9493103
  20.7036372  90.5197926  67.2687249  21.8208567  87.9752309  72.5279024
  21.3173362  87.9382444  71.7146829  22.1139173  88.8845052  72.5875680
  18.0651452  88.0591039  71.5345205  18.9304449  87.8633847  71.1751095
  18.1328961  87.8301390  72.4614562  27.6796583  98.3488620  65.0055399
  26.9026026  98.0099779  64.5610561  28.3588064  98.3541243  64.3310364
  22.4948612  93.4683357  64.8962007  22.1898748  93.7829506  65.7472150
  23.4479054  93.5464777  64.9389340  20.9395044  99.6273580  66.5454961
  20.4116406  98.8926340  66.2328198  20.4382547 100.4048257  66.2994929
  25.9187890  97.8222601  71.6622007  25.2611564  98.5121862  71.7502136
  26.7228289  98.2119033  72.0055993  15.6713772  90.2893247  68.9061572
  16.2457523  90.0668428  68.1734765  16.2584754  90.3581941  69.6590174
  24.7293349  96.1766973  69.7125949  25.2425230  96.8096965  70.2147658
  25.3794573  95.5768169  69.3469309  15.9983359  92.3197708  62.9257457
  15.1620671  92.6572394  63.2466732  15.8588128  92.1846687  61.9884594
  17.9736439  87.1634495  67.6336642  17.3200852  86.8483513  67.0093256
  17.9316913  86.5410236  68.3596465  19.0847644  97.4453791  59.5489934
  18.1774706  97.2143044  59.7481083  19.5818676  96.6491410  59.7363915
  21.2074180  93.6516429  71.9584289  20.2896741  93.8731376  71.8005977
  21.6234323  93.7262739  71.0995997  21.9909227  95.0507845  67.0886970
  22.7381046  95.5629242  66.7794092  22.2600817  94.7291897  67.9491363
  20.2635878  97.5466385  64.0713924  19.3547097  97.2625418  64.1686394
  20.2930961  97.9665464  63.2117231  25.4955145 101.1572975  67.8405091
  25.0417472 100.3163885  67.8970282  24.8649112 101.7934373  68.1779872
  24.4388065  92.0864961  69.0705759  23.7010821  91.5742347  69.4016001
  24.6914838  91.6465343  68.2589036  23.9388084 102.9949472  68.7754910
  24.2311059 103.5554529  68.0567275  24.4486705 103.2878033  69.5308069
  24.5399692  84.8641213  69.6647528  24.8458569  84.0038576  69.3773443
  25.2652297  85.4558833  69.4646522  10.8324048  95.2671900  68.0529126
  10.6348448  94.6741260  67.3280193  10.2770712  94.9624110  68.7705065
  18.8120772  95.1595006  70.1723719  18.8669381  94.2068842  70.0966196
  18.0011974  95.3154445  70.6565018  19.9611965  99.0875129  61.4102002
  19.5231395  98.3710988  60.9507640  20.7022406  99.3151244  60.8487094
  16.7513132  93.7772066  67.9314098  15.9380997  94.0766236  68.3379290
  17.2472126  93.3827755  68.6488580  18.9021709 103.7729823  69.8648363
  18.8597888 103.9990669  68.9356895  19.8184408 103.5393197  70.0134164
  22.3487343  94.2413890  76.7628992  22.7036731  94.4685363  77.6223458
  22.9959474  94.5732267  76.1406247  28.0785080  97.3632326  67.4678321
  27.9402979  97.5533922  66.5399510  27.7221299  98.1251709  67.9246372
  16.2427206  91.3490421  73.5475333  16.8826586  91.2079180  72.8498296
  15.4104737  91.0624935  73.1713935  28.1054460  99.4308853  72.4789592
  28.5390966  99.3384142  73.3272647  28.8186040  99.4066354  71.8409608
  17.0187510 100.6492852  69.6610325  17.8128109 100.1543172  69.4592900
  16.3079203 100.1210715  69.2978031  21.8382355 103.0310947  74.0122693
  21.8919377 103.6001884  74.7800409  20.9697136 103.2012832  73.6476730
  13.3270274  94.7935933  65.7370078  12.3967862  94.7320389  65.9540040
  13.4227746  94.2711886  64.9406719  13.2455823  91.3190746  68.3248320
  13.5062640  92.2336080  68.2157480  14.0672995  90.8515189  68.4744933
  14.7180748  92.7328503  75.4947144  15.3903801  92.5245866  74.8459793
  13.8910535  92.5350589  75.0552377  28.9670009  99.4732554  75.0122478
  29.1605899 100.3778364  75.2581753  28.8670627  99.0139973  75.8461063
  20.6206320  89.3590444  77.5112805  19.9734235  90.0580394  77.4177282
  21.3907335  89.7926588  77.8789053  24.0285118  99.6239297  80.5863358
  23.8770624  99.3949848  79.6693442  24.0189797 100.5809898  80.5994704
  20.7970454  97.1971209  75.5709625  21.7262514  97.3482369  75.3978592
  20.3761484  97.2855230  74.7158271  19.5958786 101.2221874  73.3408163
  19.4569872 100.8540658  74.2134101  18.8073382 101.7369513  73.1692120
  21.1464001 100.6003476  70.7297000  20.8113834 100.5604246  71.6254650
  20.6467947  99.9348192  70.2567411  15.1208245  96.0071106  76.2549582
  14.9828043  95.2751345  76.8561121  16.0313169  95.9180007  75.9733769
  24.0823193  97.9459511  61.0034060  23.4652364  97.2206339  60.9067113
  23.6139681  98.7068871  60.6601134  17.7490546  95.7191066  75.7433261
  18.4590164  95.0784258  75.7019880  17.7059854  95.9703961  76.6659442
  25.7377325 102.6558419  78.6639840  25.6789871 101.9717639  77.9970423
  26.1396843 103.3977409  78.2120466  16.4619480  92.7056284  77.5628901
  15.9256837  92.2547022  78.2150497  15.8736188  92.8402192  76.8199365
  15.8721739  92.1644935  60.1255364  14.9951205  92.0433736  59.7617611
  16.3479492  91.3731013  59.8734253  25.7394732 100.6198003  76.8953820
  24.8521511 100.2823925  77.0180219  26.3093283  99.8881034  77.1322585
   7.3923879  96.9522095  70.2196871   8.0794919  96.6383825  69.6317887
   7.2372008  97.8563459  69.9464123  12.1958601  91.8412291  74.6481895
  12.1116790  91.2337961  73.9132305  11.3741308  92.3321310  74.6491391
  19.0585665 104.5171225  67.3717885  18.2753187 105.0592906  67.4656109
  19.7578410 105.0345205  67.7712126  22.3682315  90.3265855  70.0152090
  22.8651015  89.5735817  69.6953160  21.5969297  90.3630171  69.4495299
  30.2212072  96.0306220  71.6570382  30.2101949  96.9130936  71.2864315
  29.3529452  95.6777771  71.4624919  21.7294569 105.1786289  76.0173222
  22.4422541 105.8133754  75.9449123  21.2384597 105.2750155  75.2013224
  23.4512096  99.0837542  67.5890514  22.5168374  99.2039005  67.4195218
  23.6288764  98.1810009  67.3250523  18.9517284  92.4683238  69.7423775
  18.5815071  91.9154278  70.4304680  19.4476376  91.8641371  69.1898775
  26.8384647  94.9254861  68.1240548  27.3045099  95.7582853  68.0500850
  27.2892148  94.4599843  68.8285806  16.7806482 102.9280733  76.8378793
  17.4815942 103.5617216  76.9908187  16.3101597 103.2695464  76.0774432
  24.9060878 101.2698683  65.1226700  25.1820722 101.1555277  66.0320574
  24.0365377 100.8716167  65.0838873  24.8101310  87.2935448  72.1631449
  23.8964390  87.5239675  72.3313656  25.2394411  87.3773892  73.0145481
  24.5807768  95.4825340  74.6631343  23.9279219  95.7301248  74.0083796
  24.9588148  94.6689478  74.3293820  21.5414942 105.5185033  68.7659513
  21.7237337 104.7006689  69.2287266  22.3647928 105.7352726  68.3284403
  21.8757108 104.4453219  66.0274562  22.4044874 103.9345673  65.4144724
  22.1385327 104.1295749  66.8920095  20.6295341  96.2245151  81.1497380
  19.9535978  96.1239281  81.8199755  21.4522975  96.0684365  81.6133377
  12.3774200 102.4617088  73.7709895  12.9627637 101.7160776  73.9037800
  12.1799039 102.7721045  74.6546559   6.9691855  95.0322688  72.4914339
   7.0075955  94.4986279  73.2851457   6.4632148  94.5057894  71.8725316
  14.3482617  89.8787229  75.9876881  14.4123944  90.7402060  75.5754279
  14.2849738  89.2661230  75.2549239  13.8234890  91.9510361  79.6349915
  14.4506929  91.5687438  80.2487439  12.9662809  91.7324563  80.0005608
  24.2228999 102.3573336  81.2403651  24.7668903 102.9703295  80.7458605
  23.6415843 102.9152915  81.7570664  10.6000433  93.7586790  65.5668270
  10.8953874  92.8497469  65.5135324   9.6988468  93.7374530  65.2449272
  22.5086511 105.4794054  72.3718678  22.3837651 104.6783794  71.8629624
  23.1665603 105.9740248  71.8832648  14.1294680  91.8342787  71.5495819
  13.4081265  92.4478755  71.4103292  14.9187935  92.3700552  71.4712464
  24.5721420 103.2803074  73.9998228  23.6251755 103.1608426  73.9276555
  24.9204193 102.3925572  74.0824490  16.9320993  89.1697213  77.8236470
  17.4555395  89.4159510  78.5862780  16.7133327  90.0017248  77.4039608
  12.3288274  91.4400888  65.6907595  12.0000980  90.5598267  65.5082701
  12.6827645  91.3848557  66.5783984  21.5767853 103.0755791  70.2002581
  21.4292816 102.1472498  70.3810151  22.4021347 103.0975881  69.7159656
  15.4430097  91.7273858  66.0583073  15.7826170  92.2559779  65.3361681
  15.8902218  92.0654264  66.8341639  25.1801975 103.8984349  71.2867453
  26.1048522 103.6927211  71.1491905  25.0117278 103.6500751  72.1956795
  18.1373538  90.1110908  75.5086141  17.7970359  89.3118722  75.9106821
  17.4312545  90.4112619  74.9362974  18.7890010  87.1960221  73.9613464
  19.6116079  86.7220699  73.8392354  19.0328074  87.9750705  74.4612150
  17.4298245  90.2248479  64.2576366  18.1506607  90.6029732  63.7540082
  16.8063549  90.9437356  64.3611343  21.5729367  90.9293628  65.1934698
  21.7892982  91.8118266  64.8923526  21.0923435  90.5379842  64.4640340
  16.3128589  93.8879342  71.7705442  16.1673170  94.2019645  72.6629724
  15.8353792  94.5064242  71.2176341  18.1724972  90.8781889  71.8186332
  18.1586541  89.9822983  71.4818630  18.8897400  90.8852553  72.4524618
  20.0251102  91.3119230  73.8639459  19.7668880  92.2336300  73.8623790
  19.4936143  90.9149664  74.5539924  24.9697291 104.4170017  66.6429545
  25.1434169 103.8516439  65.8903397  25.4626182 105.2170912  66.4609035
  10.7874251  96.4284686  74.7093104  10.2427719  97.2044494  74.8413378
  11.6653601  96.7755490  74.5512225  17.5761868  89.7596270  67.0873902
  17.6977779  88.8312916  67.2864790  17.2863910  89.7734956  66.1752218
  20.4453058  87.4451180  70.2240622  20.4674755  87.5090513  69.2692602
  20.8621117  86.6055689  70.4181128  30.8236682  97.1806440  68.2619845
  31.2667828  96.4313765  67.8638968  29.9463193  97.1716576  67.8793577
  25.9572464 103.7336781  63.7426443  26.6523368 104.3543474  63.9613758
  26.2995614 102.8832132  64.0178821  11.5740273  95.5554582  77.6023260
  10.8322009  95.7037218  78.1887891  11.2533017  95.8162848  76.7390010
  27.8563887 101.1836487  65.2713774  28.3815211 101.5223760  64.5463094
  27.7686239 100.2483502  65.0876908  19.5183936 105.0970560  77.4003651
  19.8271062 104.8519707  78.2726350  20.3159418 105.3017199  76.9122521
  16.9878420 102.7946479  71.7031329  16.3658429 102.1317184  71.4033557
  17.6583287 102.8207611  71.0204977  10.2205492 101.3606337  70.5922589
   9.3837400 100.9328512  70.4106590  10.1929137 101.5538781  71.5293380
  17.0602947  91.2728267  81.2963835  17.1091103  92.1490390  80.9141604
  17.6025461  90.7305660  80.7235478  27.5457793 101.8169390  80.5764972
  26.7553337 101.7993529  80.0369471  27.3091147 102.3557684  81.3314008
  27.6655668  98.6661857  77.8897700  27.7153673  98.5011864  78.8313223
  27.5569591  97.7989116  77.4995581  16.5491927 101.3450402  65.1789789
  16.6980047 102.0285867  64.5256462  17.3558370 101.3255493  65.6939245
  24.9559430  94.6492785  79.2057007  25.8569293  94.5099250  78.9141005
  25.0307405  94.8147240  80.1455185  19.2902236  92.0259640  78.0510193
  18.4205545  92.3193206  77.7792782  19.5261716  92.6100085  78.7717457
  29.1673865 101.0858798  78.1339722  28.8758673 101.4488779  78.9703183
  28.5545996 100.3725807  77.9553054  30.3669547  98.6511678  70.6542292
  31.2016438  99.0901482  70.8179852  30.5028676  98.1750331  69.8350538
  27.4161053  96.2091413  76.6019780  27.8915175  96.4019059  75.7938631
  26.4926618  96.2650599  76.3563164  14.3044560  97.3715580  66.1850858
  14.0590602  96.4677910  66.3831068  14.4740474  97.3732731  65.2430336
  21.9941270  88.2439256  75.5675614  22.5123213  88.9800283  75.2422102
  21.6396402  88.5503250  76.4022373  13.5740207  93.1043938  63.6837020
  12.8809452  93.1788293  63.0277056  13.3291959  92.3404281  64.2058537
  22.2453864  84.6639539  71.0876510  22.5255617  83.9962728  71.7136937
  23.0304471  84.8568635  70.5751174  20.0487332 103.8398533  62.6501537
  19.4761299 104.4588720  62.1972009  20.6220126 104.3897895  63.1841459
  26.1162722  93.0857173  74.8348086  27.0680145  93.1855271  74.8560310
  25.9466172  92.2935442  75.3446170  24.1377101  90.1712756  75.0207486
  23.5427034  90.4517769  74.3253975  23.8526798  90.6606657  75.7924228
  23.2684592 104.1235683  63.7810119  24.2015265 104.0581245  63.9842994
  23.1807805 104.9591950  63.3224652  25.8972609 103.4401553  60.7414067
  25.8186240 103.1061417  61.6349824  26.7182275 103.9323321  60.7405539
  28.5950800  96.3063293  73.9490385  28.5627120  95.3679293  74.1350069
  29.2051423  96.3847329  73.2156210  20.4334131  95.1759346  59.9917589
  21.3793235  95.0465554  60.0606007  20.0548376  94.4374008  60.4687017
  28.7445288  93.0974336  73.9948668  28.2284337  92.3132793  73.8078597
  29.6285237  92.7693053  74.1595188  26.4056015  86.8415352  69.9544481
  26.2080836  86.5330440  70.8387813  27.0155721  87.5676991  70.0842411
  34.4127350  97.3679300  73.0896422  35.1430738  97.1064588  73.6504125
  33.8034295  96.6308021  73.1298490  32.4942647  95.5087162  73.6870873
  31.7675810  95.3743127  73.0787365  32.0789934  95.8163991  74.4927591
  20.3172823  99.2277092  81.4518246  21.2375833  99.4055691  81.6458293
  20.2822406  98.2833137  81.2997945  18.6177048  93.1009322  59.9272474
  17.7108503  92.8042435  60.0035188  18.8953029  92.8039140  59.0606761
   9.5354988  94.4215685  70.3771521   9.2157773  93.5680994  70.0845895
   8.9888416  94.6364264  71.1329488  13.3134896  97.1378126  74.0941027
  13.5320906  98.0695234  74.1129061  13.7260670  96.7786101  74.8795831
  20.2339114  87.6446212  66.0816716  19.4239842  87.2993297  66.4571962
  20.9223530  87.3353755  66.6704327  22.1629662  86.7224259  67.7041012
  22.7160700  87.1419712  68.3631035  22.3999748  85.7960007  67.7463968
  18.1862761  92.7111332  83.4843776  18.0859488  93.6605689  83.4155867
  17.9684303  92.3829571  82.6119846  17.3875832  89.9596257  60.0684454
  18.2494996  90.2851156  60.3280271  17.5726177  89.1727753  59.5557519
   9.4043248  98.0418597  72.3464642   8.7106720  97.6272550  71.8334597
  10.1516239  98.0839133  71.7498061  25.5408469  88.8324784  67.2119677
  24.9607138  89.4909588  66.8297729  25.2744402  88.0102128  66.8007094
  23.9912035  88.2329841  69.4140997  24.4911814  88.3446376  68.6055316
  24.6347643  87.9290894  70.0541805  18.0494031  96.1408471  82.3008838
  17.5661113  96.9408831  82.5072727  18.1354970  96.1516416  81.3476282
  11.3179991  97.9736851  70.2230657  11.2950679  98.0724538  69.2712540
  11.6280627  98.8202002  70.5447823  13.9767369 100.0313006  74.3377272
  14.9310622  99.9996948  74.2707203  13.7779892  99.5703629  75.1527498
  14.5666751  98.6014122  76.9048069  15.3859640  99.0958200  76.9282907
  14.8403558  97.6846090  76.8765637  24.3233347  90.9924874  66.2676025
  23.4359202  91.2774525  66.0496220  24.7387336  90.8318637  65.4203302
  27.6747883  91.0171395  69.9830364  28.4508273  91.5067848  70.2554981
  26.9496017  91.4429449  70.4402234  30.1120442  91.7299014  71.0404305
  30.7064933  91.4894750  70.3297613  30.1847025  91.0106145  71.6677841
  23.4676560 100.7569549  60.3624045  24.1712411 100.9619551  60.9781700
  22.7439209 101.3246311  60.6273128  24.2974371  96.5079410  66.4826315
  24.2409572  96.9647961  65.6433947  24.8502713  95.7470095  66.3049158
  28.1079177  92.2969142  67.3076435  27.8516111  91.8965778  68.1384642
  27.4832045  93.0112936  67.1826574  32.4191514  95.0365215  69.8147726
  31.8591072  95.1058404  70.5879288  31.8135018  94.8606200  69.0947222
  25.3763258 101.1952078  62.4122505  26.2108862 100.7633276  62.2299980
  25.2147601 101.0234092  63.3399399  25.0309150  97.6984191  63.7778844
  24.9757954  97.5328463  62.8367288  24.4055205  98.4060224  63.9341034
   9.8201665  92.9352256  77.6040266  10.4660529  92.4251210  78.0927492
   9.6118816  93.6720937  78.1783692  22.3455057 100.0033103  83.1032407
  23.2146217 100.1773755  82.7419042  21.8661809 100.8227520  82.9808136
  18.3405275  87.1992300  63.3564163  18.3283945  88.1434140  63.5132433
  19.2328697  87.0162446  63.0623624  22.1557395  83.7935077  67.6110099
  21.3889791  83.2393564  67.7566782  22.5668100  83.8656946  68.4724251
  14.1599156  90.0819873  81.7015281  15.0230618  89.7256678  81.9118605
  13.5864567  89.7433768  82.3890685  33.5588801 109.4373183  69.5830890
  34.3451891 109.0192606  69.2321307  33.8227506 110.3419275  69.7512538
  38.9597229 109.3748416  70.4863868  39.6922400 108.8047633  70.7201698
  38.2036584 108.9870017  70.9270374  36.4822649 103.0869990  74.9458477
  36.1505974 103.9565401  74.7219692  35.8868262 102.7706274  75.6252507
  30.2178835 106.8265557  62.6788559  30.3853238 107.6945794  63.0459030
  30.0276004 106.9892839  61.7549848  36.3751312 107.8065076  72.0251827
  35.4668190 107.7380485  71.7310588  36.3238908 108.2837021  72.8533652
  38.2412959 106.0081515  73.8029701  37.5987339 106.3014048  73.1569495
  37.7367887 105.8934435  74.6082897  35.8953122 109.7544688  64.4915560
  36.8070978 109.9872075  64.3163258  35.3862769 110.3381732  63.9290639
  30.5324960 109.1141923  75.5010410  31.3786155 109.5381336  75.6445059
  30.4723598 108.4575547  76.1948973  33.6824405 106.7746291  77.1591583
  33.4385337 107.5288351  76.6225859  33.9584336 107.1531639  77.9938830
  33.2389097 105.9302724  72.7405421  32.3773576 106.2283978  73.0322159
  33.2651532 106.1473123  71.8086454  44.8414689 112.5395607  70.3576178
  44.0878397 111.9703005  70.2020182  44.9762230 112.5058272  71.3046812
  26.7180657 103.4900589  82.6945252  26.3247602 102.9366788  83.3692896
  27.5346797 103.8011168  83.0851770  29.6348618 104.9058468  80.2865509
  30.3758331 105.5065622  80.2069971  29.8666541 104.1636106  79.7283551
  33.5805781 100.9339571  74.5629790  33.2370050 101.8241213  74.4868901
  33.9484743 100.7441229  73.6999375  31.1303174 105.7697883  68.1287464
  30.2744771 105.3804734  67.9493103  31.5430126 105.8489844  67.2687249
  32.6602321 103.3044227  72.5279024  32.1567117 103.2674362  71.7146829
  32.9532928 104.2136969  72.5875680  28.9045207 103.3882956  71.5345205
  29.7698204 103.1925765  71.1751095  28.9722716 103.1593308  72.4614562
  33.3342367 108.7975275  64.8962007  33.0292502 109.1121424  65.7472150
  34.2872809 108.8756695  64.9389340  26.5107526 105.6185164  68.9061572
  27.0851278 105.3960346  68.1734765  27.0978508 105.6873859  69.6590174
  26.8377113 107.6489625  62.9257457  26.0014425 107.9864312  63.2466732
  26.6981883 107.5138605  61.9884594  28.8130194 102.4926413  67.6336642
  28.1594606 102.1775430  67.0093256  28.7710668 101.8702154  68.3596465
  32.0467934 108.9808347  71.9584289  31.1290495 109.2023294  71.8005977
  32.4628078 109.0554657  71.0995997  35.2781819 107.4156879  69.0705759
  34.5404576 106.9034265  69.4016001  35.5308593 106.9757260  68.2589036
  35.3793446 100.1933131  69.6647528  35.6852323  99.3330494  69.3773443
  36.1046051 100.7850751  69.4646522  33.1881098 109.5705808  76.7628992
  33.5430485 109.7977281  77.6223458  33.8353229 109.9024185  76.1406247
  27.0820961 106.6782339  73.5475333  27.7220340 106.5371098  72.8498296
  26.2498491 106.3916852  73.1713935  31.4600075 104.6882362  77.5112805
  30.8127990 105.3872312  77.4177282  32.2301090 105.1218506  77.8789053
  27.3013234 108.0348201  77.5628901  26.7650591 107.5838940  78.2150497
  26.7129943 108.1694110  76.8199365  26.7115493 107.4936853  60.1255364
  25.8344960 107.3725653  59.7617611  27.1873246 106.7022931  59.8734253
  33.2076070 105.6557773  70.0152090  33.7044769 104.9027735  69.6953160
  32.4363051 105.6922089  69.4495299  41.0605827 111.3598138  71.6570382
  41.0495703 112.2422853  71.2864315  40.1923206 111.0069689  71.4624919
  29.7911038 107.7975156  69.7423775  29.4208826 107.2446196  70.4304680
  30.2870131 107.1933289  69.1898775  37.6778402 110.2546779  68.1240548
  38.1438854 111.0874771  68.0500850  38.1285902 109.7891761  68.8285806
  35.6495064 102.6227366  72.1631449  34.7358144 102.8531593  72.3313656
  36.0788166 102.7065810  73.0145481  35.4201523 110.8117258  74.6631343
  34.7672973 111.0593165  74.0083796  35.7981903 109.9981396  74.3293820
  25.1876372 105.2079146  75.9876881  25.2517698 106.0693977  75.5754279
  25.1243492 104.5953148  75.2549239  24.6628644 107.2802279  79.6349915
  25.2900683 106.8979356  80.2487439  23.8056563 107.0616481  80.0005608
  27.7714748 104.4989131  77.8236470  28.2949150 104.7451428  78.5862780
  27.5527081 105.3309166  77.4039608  23.1682029 106.7692806  65.6907595
  22.8394735 105.8890185  65.5082701  23.5221399 106.7140474  66.5783984
  26.2823852 107.0565775  66.0583073  26.6219924 107.5851697  65.3361681
  26.7295972 107.3946182  66.8341639  28.9767293 105.4402826  75.5086141
  28.6364113 104.6410639  75.9106821  28.2706299 105.7404537  74.9362974
  29.6283765 102.5252139  73.9613464  30.4509834 102.0512617  73.8392354
  29.8721828 103.3042622  74.4612150  28.2691999 105.5540397  64.2576366
  28.9900362 105.9321650  63.7540082  27.6457303 106.2729274  64.3611343
  32.4123122 106.2585546  65.1934698  32.6286736 107.1410184  64.8923526
  31.9317189 105.8671759  64.4640340  29.0118726 106.2073807  71.8186332
  28.9980295 105.3114900  71.4818630  29.7291154 106.2144471  72.4524618
  30.8644857 106.6411147  73.8639459  30.6062635 107.5628218  73.8623790
  30.3329897 106.2441582  74.5539924  28.4155622 105.0888187  67.0873902
  28.5371533 104.1604834  67.2864790  28.1257665 105.1026873  66.1752218
  31.2846813 102.7743098  70.2240622  31.3068509 102.8382431  69.2692602
  31.7014872 101.9347607  70.4181128  41.6630437 112.5098357  68.2619845
  42.1061583 111.7605683  67.8638968  40.7856947 112.5008494  67.8793577
  27.8996702 106.6020185  81.2963835  27.9484857 107.4782308  80.9141604
  28.4419216 106.0597578  80.7235478  35.7953185 109.9784702  79.2057007
  36.6963048 109.8391167  78.9141005  35.8701159 110.1439157  80.1455185
  30.1295990 107.3551557  78.0510193  29.2599300 107.6485123  77.7792782
  30.3655471 107.9392002  78.7717457  38.2554808 111.5383331  76.6019780
  38.7308929 111.7310977  75.7938631  37.3320373 111.5942516  76.3563164
  32.8335024 103.5731174  75.5675614  33.3516968 104.3092201  75.2422102
  32.4790157 103.8795167  76.4022373  33.0847618  99.9931457  71.0876510
  33.3649372  99.3254646  71.7136937  33.8698225 100.1860552  70.5751174
  36.9556477 108.4149091  74.8348086  37.9073899 108.5147188  74.8560310
  36.7859927 107.6227359  75.3446170  34.9770856 105.5004674  75.0207486
  34.3820788 105.7809687  74.3253975  34.6920553 105.9898575  75.7924228
  39.4344554 111.6355210  73.9490385  39.4020874 110.6971211  74.1350069
  40.0445178 111.7139247  73.2156210  39.5839043 108.4266254  73.9948668
  39.0678091 107.6424710  73.8078597  40.4678991 108.0984970  74.1595188
  37.2449770 102.1707269  69.9544481  37.0474591 101.8622358  70.8387813
  37.8549475 102.8968908  70.0842411  45.2521104 112.6971217  73.0896422
  45.9824493 112.4356505  73.6504125  44.6428050 111.9599939  73.1298490
  43.3336401 110.8379080  73.6870873  42.6069565 110.7035045  73.0787365
  42.9183688 111.1455908  74.4927591  29.4570802 108.4301240  59.9272474
  28.5502258 108.1334352  60.0035188  29.7346783 108.1331058  59.0606761
  31.0732868 102.9738129  66.0816716  30.2633596 102.6285214  66.4571962
  31.7617285 102.6645673  66.6704327  33.0023416 102.0516176  67.7041012
  33.5554455 102.4711630  68.3631035  33.2393503 101.1251924  67.7463968
  29.0256516 108.0403250  83.4843776  28.9253242 108.9897607  83.4155867
  28.8078058 107.7121489  82.6119846  28.2269587 105.2888175  60.0684454
  29.0888751 105.6143073  60.3280271  28.4119931 104.5019671  59.5557519
  36.3802223 104.1616701  67.2119677  35.8000892 104.8201505  66.8297729
  36.1138156 103.3394046  66.8007094  34.8305790 103.5621759  69.4140997
  35.3305568 103.6738294  68.6055316  35.4741398 103.2582812  70.0541805
  35.1627101 106.3216792  66.2676025  34.2752956 106.6066442  66.0496220
  35.5781091 106.1610555  65.4203302  38.5141638 106.3463313  69.9830364
  39.2902028 106.8359765  70.2554981  37.7889772 106.7721367  70.4402234
  40.9514196 107.0590932  71.0404305  41.5458687 106.8186668  70.3297613
  41.0240780 106.3398063  71.6677841  38.9472931 107.6261060  67.3076435
  38.6909865 107.2257695  68.1384642  38.3225799 108.3404854  67.1826574
  43.2585269 110.3657133  69.8147726  42.6984827 110.4350322  70.5879288
  42.6528772 110.1898117  69.0947222  29.1799030 102.5284218  63.3564163
  29.1677700 103.4726058  63.5132433  30.0722452 102.3454363  63.0623624
  32.9951149  99.1226995  67.6110099  32.2283545  98.5685481  67.7566782
  33.4061854  99.1948863  68.4724251  24.9992910 105.4111790  81.7015281
  25.8624372 105.0548595  81.9118605  24.4258321 105.0725685  82.3890685
   1.4839672  28.2290059  57.0821484   0.7303381  27.6597457  56.9265489
   1.6187214  28.1952724  58.0292119   1.8946087  28.3865669  59.8141729
   2.6249476  28.1250957  60.3749432   1.2853033  27.6494391  59.8543797
   1.4866271  42.7308099  59.2322988   2.1244681  42.6114846  58.5286328
   1.3687114  43.6788943  59.2910940   1.0407539  40.4559552  56.3076196
   1.8270628  40.0378976  55.9566613   1.3046243  41.3605645  56.4757845
   1.2117617  45.8932403  51.0064853   0.5763450  45.9667029  51.7185758
   0.8815023  46.4826002  50.3283932   6.4415966  40.3934786  57.2109175
   7.1741138  39.8234003  57.4447004   5.6855322  40.0056386  57.6515680
   3.9641387  34.1056360  61.6703783   3.6324711  34.9751771  61.4464998
   3.3687000  33.7892644  62.3497814   3.8570050  38.8251446  58.7497133
   2.9486927  38.7566854  58.4555894   3.8057646  39.3023391  59.5778959
   5.7231696  37.0267884  60.5275007   5.0806077  37.3200418  59.8814802
   5.2186625  36.9120805  61.3328204   3.3771860  40.7731058  51.2160867
   4.2889716  41.0058444  51.0408564   2.8681507  41.3568102  50.6535945
   1.6612628  45.1955685  64.8522159   2.0695984  44.7538096  64.1076792
   0.9389889  44.6208313  65.1056352   1.9841442  45.7556876  58.6074448
   1.3550305  45.9202590  57.9050516   1.5967104  46.1698486  59.3785412
   5.8630674  46.6911314  55.9618812   5.1781712  47.0710215  55.4115845
   5.9474524  47.3006641  56.6950760   1.1643143  37.7932661  63.8836890
   0.9204075  38.5474721  63.3471166   1.4403074  38.1718008  64.7184137
   3.1181606  44.3371273  62.5614155   3.3298501  44.9803033  61.8848537
   3.0711354  43.5033589  62.0936086   4.2327434  47.2143228  60.7336513
   5.0544878  46.8123416  60.4519194   4.2289837  47.1111462  61.6852629
  12.3233427  43.5581977  57.0821484  11.5697135  42.9889375  56.9265489
  12.4580968  43.5244641  58.0292119   1.4381769  49.3321746  64.9157947
   1.4200245  50.1530627  64.4238216   2.3601689  49.2075821  65.1408088
   1.0624518  31.9525941  61.2875097   0.7188788  32.8427583  61.2114208
   1.4303481  31.7627599  60.4244682   1.0274801  41.9434552  49.7947532
   0.5121425  42.7139157  50.0335920   0.7552110  41.2699688  50.4180594
   6.0009075  44.6966907  51.7300706   5.2238518  44.3578066  51.2855868
   6.6800556  44.7019530  51.0555671   0.8161104  39.8161644  51.6207313
   0.5111240  40.1307793  52.4717457   1.7691546  39.8943064  51.6634646
   4.2400382  44.1700888  58.3867314   3.5824057  44.8600149  58.4747442
   5.0440781  44.5597320  58.7301300   3.0505841  42.5245261  56.4371255
   3.5637723  43.1575253  56.9392965   3.7007065  41.9246456  56.0714615
   3.8167637  47.5051262  54.5650398   3.3629964  46.6642172  54.6215589
   3.1861604  48.1412661  54.9025178   2.7600557  38.4343248  55.7951065
   2.0223314  37.9220634  56.1261308   3.0127330  37.9943630  54.9834342
   2.2600576  49.3427759  55.5000216   2.5523551  49.9032816  54.7812582
   2.7699197  49.6356320  56.2553375   2.8612184  31.2119500  56.3892835
   3.1671061  30.3516864  56.1018750   3.5864789  31.8037120  56.1891829
   0.6699835  40.5892177  63.4874299   1.0249223  40.8163651  64.3468764
   1.3171967  40.9210554  62.8651554   6.3997572  43.7110613  54.1923628
   6.2615471  43.9012209  53.2644817   6.0433791  44.4729996  54.6491679
   6.4266952  45.7787140  59.2034899   6.8603459  45.6862429  60.0517953
   7.1398533  45.7544641  58.5654915   7.2882502  45.8210841  61.7367785
   7.4818392  46.7256652  61.9827059   7.1883120  45.3618260  62.5706370
   2.3497610  45.9717584  67.3108665   2.1983117  45.7428135  66.3938749
   2.3402290  46.9288185  67.3240010   2.4035685  44.2937798  47.7279367
   1.7864856  43.5684626  47.6312419   1.9352174  45.0547158  47.3846441
   4.0589817  49.0036706  65.3885147   4.0002363  48.3195926  64.7215730
   4.4609335  49.7455696  64.9365773   4.0607224  46.9676290  63.6199127
   3.1734003  46.6302212  63.7425526   4.6305775  46.2359321  63.8567892
   8.5424565  42.3784508  58.3815688   8.5314441  43.2609223  58.0109621
   7.6741944  42.0256058  58.1870225   1.7724588  45.4315829  54.3135820
   0.8380867  45.5517292  54.1440525   1.9501256  44.5288296  54.0495830
   5.1597139  41.2733149  54.8485854   5.6257592  42.1061140  54.7746157
   5.6104640  40.8078130  55.5531113   3.2273370  47.6176970  51.8472006
   3.5033214  47.5033564  52.7565880   2.3577869  47.2194455  51.8084179
   3.1313802  33.6413736  58.8876756   2.2176882  33.8717962  59.0558963
   3.5606904  33.7252180  59.7390788   2.9020261  41.8303628  61.3876650
   2.2491711  42.0779535  60.7329102   3.2800640  41.0167766  61.0539127
   2.5441491  48.7051624  67.9648957   3.0881395  49.3181582  67.4703912
   1.9628336  49.2631202  68.4815970   0.8299004  51.8272342  59.0963985
   0.7050143  51.0262081  58.5874930   1.4878095  52.3218535  58.6077955
   2.8933912  49.6281362  60.7243535   1.9464248  49.5086713  60.6521862
   3.2416685  48.7403860  60.8069796   3.5014467  50.2462637  58.0112760
   4.4261015  50.0405498  57.8737211   3.3329771  49.9979038  58.9202101
   3.2909784  50.7648304  53.3674851   3.4646661  50.1994727  52.6148704
   3.7838675  51.5649199  53.1854341   9.1449175  43.5284727  54.9865151
   9.5880321  42.7792052  54.5884274   8.2675685  43.5194863  54.6038883
   4.2784956  50.0815068  50.4671750   4.9735861  50.7021761  50.6859064
   4.6208106  49.2310420  50.7424128   6.1776379  47.5314774  51.9959081
   6.7027703  47.8702047  51.2708401   6.0898732  46.5961789  51.8122215
   5.8670285  48.1647678  67.3010278   5.0765829  48.1471816  66.7614778
   5.6303640  48.7035971  68.0559315   5.9868160  45.0140144  64.6143007
   6.0366165  44.8490151  65.5558530   5.8782084  44.1467403  64.2240888
   3.2771923  40.9971072  65.9302314   4.1781785  40.8577537  65.6386312
   3.3519897  41.1625527  66.8700491   7.4886357  47.4337086  64.8585029
   7.1971165  47.7967066  65.6948490   6.8758488  46.7204094  64.6798361
   8.6882039  44.9989965  57.3787599   9.5228931  45.4379769  57.5425159
   8.8241168  44.5228619  56.5595845   5.7373545  42.5569700  63.3265087
   6.2127667  42.7497346  62.5183938   4.8139111  42.6128886  63.0808470
   0.5666356  31.0117826  57.8121817   0.8468110  30.3441015  58.4382244
   1.3516963  31.2046922  57.2996481   4.4375214  39.4335460  61.5593392
   5.3892637  39.5333558  61.5805616   4.2678665  38.6413729  62.0691477
   2.4589594  36.5191043  61.7452793   1.8639526  36.7996056  61.0499282
   2.1739290  37.0084944  62.5169534   1.5897084  50.4713970  50.5055426
   2.5227757  50.4059532  50.7088301   1.5020297  51.3070237  50.0469958
   4.2185101  49.7879841  47.4659373   4.1398732  49.4539704  48.3595131
   5.0394768  50.2801609  47.4650846   6.9163292  42.6541580  60.6735692
   6.8839612  41.7157581  60.8595376   7.5263916  42.7325617  59.9401517
   7.0657781  39.4452623  60.7193975   6.5496829  38.6611080  60.5323904
   7.9497729  39.1171340  60.8840494   4.7268507  33.1893639  56.6789788
   4.5293329  32.8808727  57.5633120   5.3368213  33.9155278  56.8087718
  12.7339842  43.7157587  59.8141729  13.4643230  43.4542875  60.3749432
  12.1246787  42.9786309  59.8543797  10.8155139  41.8565449  60.4116180
  10.0888303  41.7221414  59.8032671  10.4002426  42.1642278  61.2172898
   0.4842154  33.0702546  54.4286319   1.0373193  33.4897999  55.0876342
   0.7212240  32.1438294  54.4709275   3.8620961  35.1803071  53.9364983
   3.2819630  35.8387875  53.5543036   3.5956894  34.3580416  53.5252401
   2.3124528  34.5808129  56.1386304   2.8124306  34.6924663  55.3300622
   2.9560135  34.2769182  56.7787112   2.6445839  37.3403161  52.9921332
   1.7571694  37.6252812  52.7741526   3.0599828  37.1796925  52.1448608
   5.9960375  37.3649682  56.7075671   6.7720765  37.8546135  56.9800288
   5.2708510  37.7907737  57.1647540   8.4332934  38.0777302  57.7649611
   9.0277425  37.8373038  57.0542920   8.5059518  37.3584432  58.3923148
   1.7889053  47.1047836  47.0869351   2.4924903  47.3097839  47.7027007
   1.0651701  47.6724598  47.3518435   2.6186863  42.8557697  53.2071622
   2.5622064  43.3126249  52.3679254   3.1715205  42.0948382  53.0294464
   6.4291669  38.6447429  54.0321741   6.1728603  38.2444065  54.8629949
   5.8044537  39.3591223  53.9071880  10.7404007  41.3843502  56.5393033
  10.1803565  41.4536692  57.3124595  10.1347510  41.2084487  55.8192529
   3.6975750  47.5430365  49.1367812   4.5321354  47.1111564  48.9545286
   3.5360093  47.3712379  50.0644706   3.3521642  44.0462479  50.5024151
   3.2970446  43.8806750  49.5612595   2.7267698  44.7538511  50.6586341
  12.3260025  58.0600016  59.2322988  12.9638435  57.9406764  58.5286328
  12.2080868  59.0080860  59.2910940   9.1349731  58.0127444  59.1684513
   8.7968243  57.8968509  58.2805048  10.0039500  57.6118610  59.1485519
   4.9936547  59.8662921  55.1581404   4.4301412  59.7752858  54.3897692
   4.8788942  59.0462825  55.6383896   9.6169514  59.1662296  65.1270719
   9.6058155  58.7715094  64.2551222   9.7790154  58.4328369  65.7204490
   2.5400979  61.3614112  57.9965624   3.3322271  61.0204937  57.5811924
   2.7797629  61.4709087  58.9167778  10.5736106  63.5333889  50.4695869
   9.9224086  64.1187969  50.0829883  11.3680469  64.0640083  50.5290906
   4.4991733  60.6223026  50.8683003   5.2722609  60.0752013  50.7295879
   4.8517132  61.4867275  51.0797465   6.3376776  61.9499408  64.0749902
   6.0466642  62.8545039  63.9596569   6.9733760  61.9915936  64.7893972
   7.2632982  59.3276256  60.6651262   7.8596555  59.1032279  59.9508225
   7.3207954  58.5861002  61.2676710   6.8358011  56.7815692  48.5001453
   7.0883532  56.2597213  47.7384916   5.8982570  56.6181837  48.6028137
  11.8801294  55.7851470  56.3076196  12.6664383  55.3670893  55.9566613
  12.1439998  56.6897562  56.4757845  12.0511371  61.2224320  51.0064853
  11.4157204  61.2958947  51.7185758  11.7208777  61.8117919  50.3283932
  17.2809721  55.7226703  57.2109175  18.0134893  55.1525920  57.4447004
  16.5249076  55.3348304  57.6515680   6.5554300  58.6843798  50.7025828
   6.4390558  58.0088701  51.3706912   6.6656559  58.1976172  49.8857981
   8.8985841  58.1453945  54.4072517   8.5344048  57.6184566  55.1185439
   9.7552956  57.7552414  54.2339003  14.8035141  49.4348277  61.6703783
  14.4718466  50.3043688  61.4464998  14.2080755  49.1184561  62.3497814
   8.5391327  53.1743845  49.4033866   8.7065730  54.0424081  49.7704337
   8.3488497  53.3371126  48.4795155  11.2966661  61.6360823  61.0699696
  10.9967384  62.5385862  60.9615503  10.9517720  61.3693007  61.9220849
   4.7479142  58.0874620  57.1036401   3.8229639  57.9550834  57.3114092
   4.9963555  58.8668840  57.6006343  14.6963804  54.1543364  58.7497133
  13.7880682  54.0858772  58.4555894  14.6451400  54.6315309  59.5778959
   8.5180548  55.6301502  50.3880533   8.3980174  56.0758553  51.2266013
   7.8233137  55.9786820  49.8294071   2.1087953  57.7307894  57.9380190
   2.2380334  57.9842373  58.8519601   1.4285405  58.3235602  57.6184845
   6.2787440  68.4005144  54.0370664   6.2011470  69.3512969  54.1159144
   5.6749084  68.0551016  54.6945590   8.7704670  55.5733009  66.6932031
   7.9938004  56.1326929  66.6834895   9.4095233  56.0589792  67.2146901
  16.5625451  52.3559802  60.5275007  15.9199831  52.6492335  59.8814802
  16.0580379  52.2412722  61.3328204  14.2165615  56.1022975  51.2160867
  15.1283471  56.3350362  51.0408564  13.7075262  56.6860019  50.6535945
   7.0251043  58.3818463  66.2549998   7.7665727  58.9203507  65.9784821
   6.3188028  59.0084751  66.4121550  12.5006382  60.5247603  64.8522159
  12.9089738  60.0830014  64.1076792  11.7783644  59.9500231  65.1056352
   8.8537452  55.4620210  62.2255716   9.6998647  55.8859623  62.3690365
   8.7936090  54.8053834  62.9194279  12.8235197  61.0848794  58.6074448
  12.1944059  61.2494508  57.9050516  12.4360859  61.4990403  59.3785412
  16.7024429  62.0203232  55.9618812  16.0175467  62.4002133  55.4115845
  16.7868278  62.6298558  56.6950760  12.0036898  53.1224578  63.8836890
  11.7597829  53.8766639  63.3471166  12.2796828  53.5009926  64.7184137
  13.9575360  59.6663191  62.5614155  14.1692256  60.3094950  61.8848537
  13.9105109  58.8325507  62.0936086  11.5601589  52.2781011  59.4650728
  10.6986068  52.5762265  59.7567465  11.5864024  52.4951410  58.5331760
   8.3763159  60.8223202  55.8724533   8.8401504  61.1010905  55.0829156
   8.1119957  59.9206646  55.6897624   5.2687240  60.3694683  58.8104296
   5.8388597  60.7981952  58.1721781   5.8595352  60.0877268  59.5088482
   7.3132045  56.9446354  52.6814098   8.0156088  57.3967398  53.1488025
   6.9812673  56.3030173  53.3093992   5.7612406  55.5358111  67.0565308
   5.1311067  56.2174392  67.2900705   5.6548494  55.4241192  66.1118446
  15.0721188  62.5435146  60.7336513  15.8938632  62.1415333  60.4519194
  15.0683591  62.4403380  61.6852629   3.0072124  55.5674486  54.9414709
   2.2103287  55.6793180  55.4598204   2.7797716  55.9061138  54.0755599
   8.8377792  62.0919189  62.8897223   8.9022224  62.5539597  63.7255395
   8.1288716  61.4616554  63.0179533   8.5525809  63.7587297  52.7576204
   8.4171484  64.6038833  53.1861051   9.0935622  63.9606574  51.9942137
   5.0393149  49.8378877  69.4190559   4.6460095  49.2845075  70.0938203
   5.8559289  50.1489455  69.8097076   2.0055207  61.2762735  53.3304129
   2.5179727  62.0705985  53.4809693   2.6577920  60.5789025  53.2637730
   3.8150091  64.3928491  55.4126882   3.9916720  65.3146456  55.2247866
   4.6106925  64.0786910  55.8421262   7.9561110  51.2536756  67.0110815
   8.6970823  51.8543909  66.9315278   8.1879033  50.5114394  66.4528858
   3.1002448  56.4393123  65.2889045   2.9855963  55.5378380  65.5896144
   2.2446966  56.6856820  64.9373862  10.1794286  64.3810863  66.8876546
   9.7358140  63.5947242  66.5697450  10.8411499  64.5690014  66.2220436
   4.9381407  65.9106665  61.4137224   5.4888832  65.7823728  60.6414218
   4.0992883  66.2101554  61.0632117  12.2775524  64.6613663  64.9157947
  12.2593999  65.4822544  64.4238216  13.1995444  64.5367738  65.1408088
   8.7348578  62.1757793  65.7581455   9.2676915  61.4146081  65.5280763
   8.2062659  61.8831445  66.5005610  11.9018273  47.2817859  61.2875097
  11.5582542  48.1719500  61.2114208  12.2697236  47.0919516  60.4244682
  11.8668556  57.2726470  49.7947532  11.3515179  58.0431074  50.0335920
  11.5945864  56.5991606  50.4180594   9.4515667  52.1176171  54.8532771
   8.5957263  51.7283021  54.6738409   9.8642618  52.1968131  53.9932556
  10.9814813  49.6522514  59.2524330  10.4779609  49.6152649  58.4392136
  11.2745420  50.5615257  59.3120987   7.2257699  49.7361244  58.2590512
   8.0910696  49.5404052  57.8996402   7.2935208  49.5071595  59.1859869
  11.6554859  55.1453562  51.6207313  11.3504994  55.4599711  52.4717457
  12.6085301  55.2234982  51.6634646  10.1001291  61.3043785  53.2700267
   9.5722652  60.5696545  52.9573505   9.5988793  62.0818462  53.0240236
  15.0794137  59.4992806  58.3867314  14.4217811  60.1892067  58.4747442
  15.8834536  59.8889238  58.7301300   4.8320018  51.9663451  55.6306879
   5.4063770  51.7438633  54.8980072   5.4191001  52.0352146  56.3835480
  13.8899596  57.8537178  56.4371255  14.4031477  58.4867170  56.9392965
  14.5400819  57.2538374  56.0714615   5.1589605  53.9967912  49.6502764
   4.3226918  54.3342599  49.9712039   5.0194375  53.8616892  48.7129901
   7.1342686  48.8404700  54.3581948   6.4807098  48.5253718  53.7338563
   7.0923160  48.2180441  55.0841771   8.2453891  59.1223995  46.2735240
   7.3380953  58.8913249  46.4726389   8.7424923  58.3261615  46.4609222
  11.1521970  67.8321503  49.1931927  10.4783669  68.1353199  49.8016884
  11.5387792  68.6350583  48.8437384  10.3680426  55.3286634  58.6829596
   9.4502988  55.5501581  58.5251284  10.7840570  55.4032944  57.8241303
  11.1515474  56.7278050  53.8132276  11.8987293  57.2399447  53.5039398
  11.4207064  56.4062102  54.6736670   9.4242124  59.2236590  50.7959230
   8.5153344  58.9395623  50.8931700   9.4537208  59.6435669  49.9362537
  14.6561392  62.8343180  54.5650398  14.2023719  61.9934090  54.6215589
  14.0255358  63.4704578  54.9025178  13.5994311  53.7635166  55.7951065
  12.8617068  53.2512552  56.1261308  13.8521085  53.3235547  54.9834342
  13.0994331  64.6719677  55.5000216  13.3917305  65.2324734  54.7812582
  13.6092952  64.9648238  56.2553375  13.7005939  46.5411418  56.3892835
  14.0064815  45.6808781  56.1018750  14.4258543  47.1329038  56.1891829
   7.9727018  56.8365211  56.8969026   8.0275628  55.8839047  56.8211502
   7.1618220  56.9924650  57.3810324   9.1218212  60.7645334  48.1347309
   8.6837642  60.0481193  47.6752946   9.8628653  60.9921449  47.5732400
   5.9119378  55.4542271  54.6559405   5.0987244  55.7536441  55.0624597
   6.4078372  55.0597959  55.3733887   8.0627956  65.4500028  56.5893669
   8.0204135  65.6760874  55.6602201   8.9790655  65.2163402  56.7379471
  11.5093590  55.9184095  63.4874299  11.8642978  56.1455568  64.3468764
  12.1565721  56.2502472  62.8651554   5.4033453  53.0260626  60.2720640
   6.0432832  52.8849385  59.5743603   4.5710984  52.7395140  59.8959242
  17.2660707  61.1079058  59.2034899  17.6997213  61.0154347  60.0517953
  17.9792287  61.0836558  58.5654915   6.1793757  62.3263057  56.3855632
   6.9734355  61.8313377  56.1838207   5.4685449  61.7980920  56.0223338
  10.9988601  64.7081152  60.7368000  11.0525624  65.2772088  61.5045716
  10.1303383  64.8783037  60.3722037   2.4876520  56.4706138  52.4615385
   1.5574109  56.4090594  52.6785347   2.5833992  55.9482091  51.6652026
   2.4062069  52.9960951  55.0493626   2.6668887  53.9106284  54.9402787
   3.2279242  52.5285394  55.1990239   3.8786995  54.4098708  62.2192451
   4.5510048  54.2016070  61.5705100   3.0516781  54.2120794  61.7797683
  18.1276256  61.1502759  61.7367785  18.3212146  62.0548569  61.9827059
  18.0276874  60.6910178  62.5706370   9.7812567  51.0360649  64.2358112
   9.1340482  51.7350599  64.1422588  10.5513582  51.4696793  64.6034360
  13.1891365  61.3009501  67.3108665  13.0376871  61.0720053  66.3938749
  13.1796044  62.2580103  67.3240010   9.9576701  58.8741414  62.2954932
  10.8868761  59.0252574  62.1223899   9.5367731  58.9625435  61.4403578
   8.7565033  62.8992079  60.0653469   8.6176119  62.5310863  60.9379407
   7.9679629  63.4139718  59.8937427   9.3513185  68.0001175  51.4079006
   9.5264941  67.5289218  52.2224628   8.6645973  68.6266941  51.6360266
  10.3070248  62.2773681  57.4542307   9.9720081  62.2374451  58.3499957
   9.8074194  61.6118397  56.9812717   4.2814492  57.6841311  62.9794888
   4.1434290  56.9521550  63.5806427   5.1919416  57.5950211  62.6979076
  13.2429440  59.6229716  47.7279367  12.6258610  58.8976544  47.6312419
  12.7745928  60.3839076  47.3846441   6.9096793  57.3961271  62.4678568
   7.6196411  56.7554463  62.4265186   6.8666101  57.6474165  63.3904749
  14.8983571  64.3328624  65.3885147  14.8396118  63.6487844  64.7215730
  15.3003090  65.0747614  64.9365773   5.6225727  54.3826489  64.2874207
   5.0863084  53.9317227  64.9395804   5.0342435  54.5172397  63.5444672
   3.9174270  71.1490538  58.1818866   4.1570868  71.7809062  58.8597884
   3.0743467  70.7978578  58.4684225   5.0327986  53.8415140  46.8500671
   4.1557452  53.7203941  46.4862918   5.5085739  53.0501218  46.5979560
  14.9000979  62.2968208  63.6199127  14.0127757  61.9594130  63.7425526
  15.4699530  61.5651239  63.8567892   1.3564848  53.5182496  61.3727202
   1.2723037  52.9108166  60.6377612   0.5347554  54.0091515  61.3736698
   8.4302132  66.9569660  60.5860370   8.3572304  67.7624632  61.0979674
   7.9879525  67.1561626  59.7608391   8.2191912  66.1941430  54.0963191
   7.4359434  66.7363110  54.1901416   8.9184657  66.7115410  54.4957433
  11.5288562  52.0036060  56.7397397  12.0257261  51.2506022  56.4198467
  10.7575543  52.0400376  56.1740606  19.3818319  57.7076425  58.3815688
  19.3708195  58.5901141  58.0109621  18.5135699  57.3547976  58.1870225
  10.8900816  66.8556494  62.7418529  11.6028788  67.4903959  62.6694430
  10.3990844  66.9520360  61.9258530  12.6118342  60.7607747  54.3135820
  11.6774621  60.8809209  54.1440525  12.7895011  59.8580214  54.0495830
   8.1123531  54.1453443  56.4669081   7.7421318  53.5924483  57.1549987
   8.6082623  53.5411576  55.9144081  15.9990894  56.6025066  54.8485854
  16.4651346  57.4353058  54.7746157  16.4498394  56.1370048  55.5531113
   5.9412729  64.6050938  63.5624099   6.6422189  65.2387421  63.7153494
   5.4707844  64.9465669  62.8019739  14.0667125  62.9468888  51.8472006
  14.3426969  62.8325482  52.7565880  13.1971624  62.5486372  51.8084179
  13.9707557  48.9705653  58.8876756  13.0570636  49.2009880  59.0558963
  14.4000658  49.0544097  59.7390788  13.7414015  57.1595545  61.3876650
  13.0885465  57.4071453  60.7329102  14.1194395  56.3459683  61.0539127
  10.7021189  67.1955238  55.4904820  10.8843583  66.3776894  55.9532572
  11.5254175  67.4122931  55.0529710  11.0363354  66.1223424  52.7519868
  11.5651121  65.6115878  52.1390031  11.2991574  65.8065954  53.6165402
   9.7901588  57.9015356  67.8742687   9.1142225  57.8009486  68.5445062
  10.6129222  57.7454570  68.3378684   1.5380447  64.1387293  60.4955202
   2.1233884  63.3930981  60.6283106   1.3405286  64.4491250  61.3791866
   4.3919102  67.1738540  55.5117644   3.7229478  67.6584668  55.0281684
   4.2531972  67.4207761  56.4261023   8.5324371  69.2082284  62.1100303
   9.0842679  69.3713905  62.8749388   8.8730564  69.7986722  61.4380328
   3.5088864  51.5557434  62.7122187   3.5730191  52.4172264  62.2999585
   3.4455984  50.9431435  61.9794546   2.9841137  53.6280566  66.3595222
   3.6113176  53.2457643  66.9732746   2.1269056  53.4094768  66.7250914
  13.3835245  64.0343541  67.9648957  13.9275149  64.6473500  67.4703912
  12.8022090  64.5923120  68.4815970  11.6692758  67.1564259  59.0963985
  11.5443898  66.3553999  58.5874930  12.3271849  67.6510453  58.6077955
   3.2900926  53.5112992  58.2741125   2.5687512  54.1248959  58.1348598
   4.0794182  54.0470757  58.1957771  13.7327667  64.9573279  60.7243535
  12.7858002  64.8378631  60.6521862  14.0810440  64.0695777  60.8069796
   6.0927240  50.8467418  64.5481777   6.6161642  51.0929715  65.3108086
   5.8739573  51.6787453  64.1284914   1.4894521  53.1171093  52.4152902
   1.1607227  52.2368472  52.2328008   1.8433892  53.0618762  53.3029291
  10.7374100  64.7525996  56.9247887  10.5899062  63.8242703  57.1055457
  11.5627593  64.7746086  56.4404962   4.6036344  53.4044063  52.7828379
   4.9432417  53.9329984  52.0606988   5.0508465  53.7424469  53.5586946
  14.3408222  65.5754554  58.0112760  15.2654769  65.3697416  57.8737211
  14.1723525  65.3270955  58.9202101   7.2979785  51.7881113  62.2331447
   6.9576605  50.9888926  62.6352127   6.5918791  52.0882824  61.6608281
   7.9496257  48.8730426  60.6858770   8.7722326  48.3990904  60.5637661
   8.1934320  49.6520910  61.1857457   6.5904491  51.9018684  50.9821672
   7.3112854  52.2799937  50.4785389   5.9669795  52.6207561  51.0856650
  10.7335614  52.6063833  51.9180004  10.9499229  53.4888471  51.6168833
  10.2529681  52.2150047  51.1885646   5.4734836  55.5649546  58.4950749
   5.3279416  55.8789849  59.3875031   4.9960039  56.1834447  57.9421648
   7.3331219  52.5552094  58.5431639   7.3192787  51.6593188  58.2063937
   8.0503647  52.5622758  59.1769925   9.1857349  52.9889435  60.5884766
   8.9275127  53.9106505  60.5869097   8.6542390  52.5919869  61.2785230
  14.1303538  66.0940222  53.3674851  14.3040416  65.5286644  52.6148704
  14.6232429  66.8941117  53.1854341   6.7368114  51.4366475  53.8119209
   6.8584026  50.5083121  54.0110096   6.4470157  51.4505161  52.8997524
   9.6059305  49.1221385  56.9485929   9.6281002  49.1860718  55.9937908
  10.0227364  48.2825894  57.1426435  15.1178710  65.4106986  50.4671750
  15.8129615  66.0313679  50.6859064  15.4601861  64.5602337  50.7424128
   8.6790182  66.7740765  64.1248957   8.9877309  66.5289912  64.9971657
   9.4765664  66.9787404  63.6367827   8.7010794  68.9278675  56.3554334
   8.2615785  68.4355054  57.0487190   9.4518911  68.3851643  56.1146409
   1.1803133  65.1190216  56.3578962   2.0061153  64.8193988  55.9777605
   0.8297185  64.3497838  56.8068750   6.1484667  64.4716684  58.4276635
   5.5264676  63.8087389  58.1278863   6.8189533  64.4977816  57.7450283
   6.2209194  52.9498472  68.0209141   6.2697349  53.8260595  67.6386911
   6.7631708  52.4075865  67.4480785  16.7064040  63.4939595  67.3010278
  15.9159583  63.4763734  66.7614778  16.4697394  64.0327889  68.0559315
  16.8261915  60.3432062  64.6143007  16.8759920  60.1782069  65.5558530
  16.7175838  59.4759321  64.2240888   5.7098173  63.0220607  51.9035096
   5.8586294  63.7056072  51.2501769   6.5164617  63.0025697  52.4184552
  14.1165677  56.3262990  65.9302314  15.0175540  56.1869455  65.6386312
  14.1913652  56.4917445  66.8700491   8.4508482  53.7029844  64.7755500
   7.5811792  53.9963411  64.5038089   8.6867963  54.2870289  65.4962764
  18.3280112  62.7629003  64.8585029  18.0364920  63.1258984  65.6948490
  17.7152243  62.0496011  64.6798361  16.5767300  57.8861618  63.3265087
  17.0521421  58.0789264  62.5183938  15.6532865  57.9420804  63.0808470
   3.4650806  59.0485785  52.9096165   3.2196848  58.1448115  53.1076375
   3.6346721  59.0502935  51.9675643  11.1547516  49.9209461  62.2920920
  11.6729460  50.6570488  61.9667409  10.8002649  50.2273455  63.1267680
   2.7346454  54.7814143  50.4082326   2.0415699  54.8558498  49.7522362
   2.4898206  54.0174486  50.9303843  11.4060110  46.3409744  57.8121817
  11.6861864  45.6732933  58.4382244  12.1910717  46.5338840  57.2996481
   9.2093579  65.5168738  49.3746843   8.6367546  66.1358925  48.9217315
   9.7826373  66.0668100  49.9086765  15.2768969  54.7627378  61.5593392
  16.2286392  54.8625476  61.5805616  15.1072419  53.9705646  62.0691477
  13.2983348  51.8482961  61.7452793  12.7033280  52.1287974  61.0499282
  13.0133045  52.3376862  62.5169534  12.4290839  65.8005888  50.5055426
  13.3621512  65.7351450  50.7088301  12.3414052  66.6362155  50.0469958
  15.0578855  65.1171758  47.4659373  14.9792487  64.7831622  48.3595131
  15.8788522  65.6093526  47.4650846  17.7557047  57.9833498  60.6735692
  17.7233367  57.0449498  60.8595376  18.3657670  58.0617534  59.9401517
   9.5940377  56.8529551  46.7162896  10.5399482  56.7235759  46.7851314
   9.2154622  56.1144212  47.1932324  17.9051535  54.7744541  60.7193975
  17.3890584  53.9902998  60.5323904  18.7891484  54.4463258  60.8840494
  15.5662262  48.5185557  56.6789788  15.3687083  48.2100645  57.5633120
  16.1761968  49.2447196  56.8087718  21.6548894  57.1857367  60.4116180
  20.9282057  57.0513332  59.8032671  21.2396180  57.4934196  61.2172898
   9.4779070  60.9047297  68.1763553  10.3982079  61.0825896  68.3703599
   9.4428653  59.9603342  68.0243252   7.7783295  54.7779527  46.6517781
   6.8714750  54.4812640  46.7280495   8.0559276  54.4809345  45.7852067
   2.4741143  58.8148331  60.8186334   2.6927152  59.7465439  60.8374368
   2.8866916  58.4556306  61.6041138   9.3945360  49.3216417  52.8062022
   8.5846089  48.9763502  53.1817268  10.0829777  49.0123960  53.3949634
  11.3235909  48.3994463  54.4286319  11.8766947  48.8189917  55.0876342
  11.5605995  47.4730212  54.4709275   7.3469008  54.3881537  70.2089083
   7.2465735  55.3375894  70.1401174   7.1290550  54.0599776  69.3365153
   6.5482079  51.6366462  46.7929760   7.4101243  51.9621360  47.0525578
   6.7332423  50.8497958  46.2802826  14.7014716  50.5094989  53.9364983
  14.1213385  51.1679793  53.5543036  14.4350648  49.6872333  53.5252401
  13.1518282  49.9100046  56.1386304  13.6518060  50.0216581  55.3300622
  13.7953890  49.6061099  56.7787112   7.2100278  57.8178676  69.0254145
   6.7267360  58.6179036  69.2318034   7.2961217  57.8286621  68.0721589
   0.4786237  59.6507056  56.9475964   0.4556926  59.7494743  55.9957847
   0.7886874  60.4972206  57.2693130   3.1373615  61.7083211  61.0622578
   4.0916869  61.6767153  60.9952510   2.9386139  61.2473834  61.8772804
   3.7272997  60.2784327  63.6293376   4.5465886  60.7728405  63.6528213
   4.0009805  59.3616295  63.6010944  13.4839594  52.6695079  52.9921332
  12.5965449  52.9544730  52.7741526  13.8993583  52.5088842  52.1448608
  16.8354130  52.6941600  56.7075671  17.6114520  53.1838052  56.9800288
  16.1102264  53.1199654  57.1647540  19.2726688  53.4069219  57.7649611
  19.8671179  53.1664955  57.0542920  19.3453272  52.6876350  58.3923148
   1.4923844  67.2502830  58.0792776   1.3578312  66.4903231  57.5130774
   1.0755906  67.9743730  57.6121565  12.6282807  62.4339754  47.0869351
  13.3318657  62.6389756  47.7027007  11.9045456  63.0016516  47.3518435
  13.4580617  58.1849615  53.2071622  13.4015819  58.6418166  52.3679254
  14.0108960  57.4240300  53.0294464  17.2685423  53.9739347  54.0321741
  17.0122358  53.5735982  54.8629949  16.6438291  54.6883141  53.9071880
  21.5797761  56.7135420  56.5393033  21.0197319  56.7828609  57.3124595
  20.9741265  56.5376405  55.8192529   4.6492970  68.1472147  58.2911219
   4.5325354  69.0917580  58.1889909   3.8285416  67.8445709  58.6797018
  14.5369505  62.8722283  49.1367812  15.3715109  62.4403481  48.9545286
  14.3753847  62.7004297  50.0644706  14.1915397  59.3754396  50.5024151
  14.1364201  59.2098668  49.5612595  13.5661452  60.0830429  50.6586341
  11.5061304  61.6803308  69.8277714  12.3752464  61.8543960  69.4664349
  11.0268055  62.4997725  69.7053443   7.5011522  48.8762505  50.0809469
   7.4890192  49.8204345  50.2377740   8.3934944  48.6932651  49.7868930
   5.6747484  68.8000409  61.5067147   6.5774731  68.8324019  61.8233642
   5.4484854  67.8700860  61.5213483   7.4301086  67.5531396  58.1677226
   6.4796717  67.5533257  58.0541598   7.7333572  66.8064130  57.6513261
  11.3163642  45.4705282  54.3355406  10.5496037  44.9163769  54.4812088
  11.7274347  45.5427151  55.1969558   3.3205403  51.7590078  68.4260587
   4.1836864  51.4026883  68.6363912   2.7470813  51.4203972  69.1135992
  20.4563269  74.4954214  65.1270719  20.4451910  74.1007012  64.2551222
  20.6183908  73.7620286  65.7204490  13.3794734  76.6906030  57.9965624
  14.1716025  76.3496855  57.5811924  13.6191384  76.8001005  58.9167778
  21.4129860  78.8625806  50.4695869  20.7617840  79.4479887  50.0829883
  22.2074223  79.3932001  50.5290906  15.3385488  75.9514943  50.8683003
  16.1116364  75.4043930  50.7295879  15.6910886  76.8159193  51.0797465
  17.1770530  77.2791326  64.0749902  16.8860396  78.1836956  63.9596569
  17.8127514  77.3207853  64.7893972  18.1026737  74.6568174  60.6651262
  18.6990309  74.4324197  59.9508225  18.1601708  73.9152920  61.2676710
  17.6751765  72.1107609  48.5001453  17.9277286  71.5889131  47.7384916
  16.7376324  71.9473755  48.6028137  22.8905126  76.5516238  51.0064853
  22.2550958  76.6250865  51.7185758  22.5602532  77.1409837  50.3283932
  17.3948054  74.0135715  50.7025828  17.2784312  73.3380619  51.3706912
  17.5050314  73.5268089  49.8857981  22.1360415  76.9652741  61.0699696
  21.8361138  77.8677780  60.9615503  21.7911475  76.6984924  61.9220849
  12.9481708  73.0599812  57.9380190  13.0774089  73.3134290  58.8519601
  12.2679159  73.6527520  57.6184845  17.1181195  83.7297062  54.0370664
  17.0405225  84.6804887  54.1159144  16.5142839  83.3842934  54.6945590
  19.6098425  70.9024927  66.6932031  18.8331759  71.4618847  66.6834895
  20.2488988  71.3881710  67.2146901  17.8644797  73.7110380  66.2549998
  18.6059481  74.2495424  65.9784821  17.1581783  74.3376669  66.4121550
  23.3400137  75.8539521  64.8522159  23.7483493  75.4121931  64.1076792
  22.6177398  75.2792148  65.1056352  19.6931207  70.7912128  62.2255716
  20.5392402  71.2151541  62.3690365  19.6329844  70.1345752  62.9194279
  24.7969115  74.9955108  62.5614155  25.0086010  75.6386868  61.8848537
  24.7498863  74.1617425  62.0936086  16.1080994  75.6986601  58.8104296
  16.6782351  76.1273869  58.1721781  16.6989106  75.4169186  59.5088482
  16.6006161  70.8650028  67.0565308  15.9704821  71.5466309  67.2900705
  16.4942249  70.7533110  66.1118446  11.8951133  70.5321824  57.9831232
  11.1050187  70.7879353  57.5071343  12.3862381  71.3470162  58.0883272
  25.9114943  77.8727064  60.7336513  26.7332387  77.4707251  60.4519194
  25.9077346  77.7695298  61.6852629  13.8465879  70.8966404  54.9414709
  13.0497042  71.0085098  55.4598204  13.6191471  71.2353056  54.0755599
  19.6771546  77.4211107  62.8897223  19.7415979  77.8831514  63.7255395
  18.9682470  76.7908472  63.0179533  10.1788836  70.7852315  60.4146223
  10.4296875  71.6699325  60.6803799  10.7148385  70.6056916  59.6421315
  19.3919564  79.0879214  52.7576204  19.2565239  79.9330750  53.1861051
  19.9329376  79.2898492  51.9942137  15.8786904  65.1670794  69.4190559
  15.4853849  64.6136993  70.0938203  16.6953044  65.4781373  69.8097076
  12.8448961  76.6054652  53.3304129  13.3573482  77.3997903  53.4809693
  13.4971674  75.9080943  53.2637730  14.6543846  79.7220409  55.4126882
  14.8310474  80.6438373  55.2247866  15.4500679  79.4078828  55.8421262
  18.7954865  66.5828673  67.0110815  19.5364578  67.1835827  66.9315278
  19.0272787  65.8406311  66.4528858  13.9396203  71.7685041  65.2889045
  13.8249718  70.8670298  65.5896144  13.0840720  72.0148737  64.9373862
  21.0188040  79.7102781  66.8876546  20.5751894  78.9239160  66.5697450
  21.6805254  79.8981931  66.2220436  15.7775161  81.2398583  61.4137224
  16.3282587  81.1115646  60.6414218  14.9386637  81.5393472  61.0632117
  23.1169278  79.9905581  64.9157947  23.0987754  80.8114462  64.4238216
  24.0389198  79.8659656  65.1408088  19.5742332  77.5049710  65.7581455
  20.1070669  76.7437999  65.5280763  19.0456414  77.2123362  66.5005610
  10.8097878  74.9343307  54.1063699  11.6473100  75.3440315  53.8897407
  10.9876146  73.9942749  54.0763893  18.0651454  65.0653161  58.2590512
  18.9304450  64.8695970  57.8996402  18.1328963  64.8363513  59.1859869
  20.9395045  76.6335703  53.2700267  20.4116407  75.8988462  52.9573505
  20.4382548  77.4110379  53.0240236  15.6713773  67.2955369  55.6306879
  16.2457525  67.0730551  54.8980072  16.2584755  67.3644064  56.3835480
  15.9983360  69.3259830  49.6502764  15.1620672  69.6634517  49.9712039
  15.8588130  69.1908810  48.7129901  19.0847645  74.4515913  46.2735240
  18.1774707  74.2205167  46.4726389  19.5818677  73.6553532  46.4609222
  21.9915724  83.1613420  49.1931927  21.3177423  83.4645117  49.8016884
  22.3781546  83.9642501  48.8437384  20.2635879  74.5528508  50.7959230
  19.3547098  74.2687541  50.8931700  20.2930963  74.9727587  49.9362537
  10.8324049  72.2734022  54.7774433  10.6348449  71.6803383  54.0525499
  10.2770713  71.9686232  55.4950371  19.9611967  76.0937252  48.1347309
  19.5231397  75.3773111  47.6752946  20.7022407  76.3213366  47.5732400
  22.3487344  71.2476013  63.4874299  22.7036732  71.4747486  64.3468764
  22.9959476  71.5794390  62.8651554  16.2427208  68.3552544  60.2720640
  16.8826587  68.2141303  59.5743603  15.4104738  68.0687057  59.8959242
  17.0187511  77.6554974  56.3855632  17.8128110  77.1605294  56.1838207
  16.3079204  77.1272837  56.0223338  21.8382356  80.0373070  60.7368000
  21.8919378  80.6064006  61.5045716  20.9697137  80.2074955  60.3722037
  13.3270275  71.7998056  52.4615385  12.3967863  71.7382512  52.6785347
  13.4227747  71.2774009  51.6652026  13.2455824  68.3252869  55.0493626
  13.5062641  69.2398202  54.9402787  14.0672996  67.8577311  55.1990239
  14.7180749  69.7390626  62.2192451  15.3903803  69.5307988  61.5705100
  13.8910536  69.5412712  61.7797683  20.6206321  66.3652567  64.2358112
  19.9734236  67.0642517  64.1422588  21.3907337  66.7988711  64.6034360
  24.0285119  76.6301419  67.3108665  23.8770626  76.4011971  66.3938749
  24.0189799  77.5872021  67.3240010  20.7970456  74.2033332  62.2954932
  21.7262516  74.3544491  62.1223899  20.3761486  74.2917353  61.4403578
  19.5958787  78.2283996  60.0653469  19.4569873  77.8602781  60.9379407
  18.8073384  78.7431636  59.8937427  20.1906939  83.3293093  51.4079006
  20.3658695  82.8581136  52.2224628  19.5039727  83.9558859  51.6360266
  21.1464003  77.6065599  57.4542307  20.8113835  77.5666369  58.3499957
  20.6467948  76.9410315  56.9812717  15.1208247  73.0133229  62.9794888
  14.9828044  72.2813468  63.5806427  16.0313170  72.9242129  62.6979076
  24.0823194  74.9521633  47.7279367  23.4652365  74.2268461  47.6312419
  23.6139683  75.7130994  47.3846441  17.7490547  72.7253188  62.4678568
  18.4590166  72.0846381  62.4265186  17.7059855  72.9766083  63.3904749
  25.7377326  79.6620542  65.3885147  25.6789872  78.9779762  64.7215730
  26.1396844  80.4039532  64.9365773  16.4619481  69.7118406  64.2874207
  15.9256838  69.2609145  64.9395804  15.8736190  69.8464315  63.5444672
  14.7568025  86.4782456  58.1818866  14.9964623  87.1100980  58.8597884
  13.9137221  86.1270496  58.4684225  15.8721740  69.1707058  46.8500671
  14.9951206  69.0495858  46.4862918  16.3479493  68.3793136  46.5979560
  25.7394733  77.6260126  63.6199127  24.8521512  77.2886047  63.7425526
  26.3093284  76.8943157  63.8567892   7.3923880  73.9584217  56.9442178
   8.0794920  73.6445947  56.3563193   7.2372009  74.8625582  56.6709429
  12.1958602  68.8474414  61.3727202  12.1116791  68.2400083  60.6377612
  11.3741309  69.3383432  61.3736698  19.2695887  82.2861578  60.5860370
  19.1966058  83.0916549  61.0979674  18.8273280  82.4853544  59.7608391
  19.0585666  81.5233348  54.0963191  18.2753188  82.0655028  54.1901416
  19.7578411  82.0407328  54.4957433  21.7294570  82.1848412  62.7418529
  22.4422542  82.8195877  62.6694430  21.2384599  82.2812278  61.9258530
  16.7806484  79.9342855  63.5624099  17.4815943  80.5679338  63.7153494
  16.3101599  80.2757587  62.8019739  24.5807770  72.4887463  61.3876650
  23.9279220  72.7363370  60.7329102  24.9588149  71.6751601  61.0539127
  21.5414943  82.5247156  55.4904820  21.7237338  81.7068812  55.9532572
  22.3647929  82.7414848  55.0529710  21.8757109  81.4515341  52.7519868
  22.4044875  80.9407796  52.1390031  22.1385329  81.1357871  53.6165402
  20.6295343  73.2307274  67.8742687  19.9535980  73.1301403  68.5445062
  21.4522976  73.0746488  68.3378684  12.3774202  79.4679210  60.4955202
  12.9627638  78.7222898  60.6283106  12.1799040  79.7783167  61.3791866
  15.2312857  82.5030458  55.5117644  14.5623232  82.9876586  55.0281684
  15.0925727  82.7499678  56.4261023   6.9691856  72.0384811  59.2159645
   7.0075956  71.5048401  60.0096763   6.4632149  71.5120016  58.5970622
  19.3718125  84.5374201  62.1100303  19.9236433  84.7005823  62.8749388
  19.7124319  85.1278639  61.4380328  14.3482619  66.8849351  62.7122187
  14.4123945  67.7464182  62.2999585  14.2849739  66.2723353  61.9794546
  13.8234891  68.9572484  66.3595222  14.4506930  68.5749561  66.9732746
  12.9662810  68.7386686  66.7250914  24.2229000  79.3635459  67.9648957
  24.7668904  79.9765417  67.4703912  23.6415845  79.9215037  68.4815970
  10.6000434  70.7648913  52.2913577  10.8953875  69.8559591  52.2380630
   9.6988470  70.7436652  51.9694579  22.5086513  82.4856177  59.0963985
  22.3837652  81.6845917  58.5874930  23.1665604  82.9802370  58.6077955
  14.1294681  68.8404909  58.2741125  13.4081267  69.4540877  58.1348598
  14.9187937  69.3762674  58.1957771  24.5721421  80.2865197  60.7243535
  23.6251757  80.1670548  60.6521862  24.9204194  79.3987695  60.8069796
  16.9320995  66.1759336  64.5481777  17.4555396  66.4221632  65.3108086
  16.7133328  67.0079371  64.1284914  12.3288276  68.4463011  52.4152902
  12.0000982  67.5660389  52.2328008  12.6827646  68.3910679  53.3029291
  21.5767854  80.0817913  56.9247887  21.4292817  79.1534621  57.1055457
  22.4021348  80.1038004  56.4404962  15.4430099  68.7335980  52.7828379
  15.7826171  69.2621902  52.0606988  15.8902219  69.0716386  53.5586946
  18.1373540  67.1173031  62.2331447  17.7970360  66.3180844  62.6352127
  17.4312546  67.4174742  61.6608281  18.7890011  64.2022343  60.6858770
  19.6116081  63.7282822  60.5637661  19.0328075  64.9812827  61.1857457
  17.4298246  67.2310602  50.9821672  18.1506608  67.6091855  50.4785389
  16.8063550  67.9499479  51.0856650  18.1724973  67.8844012  58.5431639
  18.1586542  66.9885105  58.2063937  18.8897401  67.8914676  59.1769925
  20.0251104  68.3181352  60.5884766  19.7668882  69.2398423  60.5869097
  19.4936144  67.9211787  61.2785230  10.7874252  73.4346808  61.4338410
  10.2427720  74.2106616  61.5658685  11.6653602  73.7817613  61.2757532
  17.5761869  66.7658392  53.8119209  17.6977780  65.8375039  54.0110096
  17.2863911  66.7797078  52.8997524  11.5740274  72.5616705  64.3268567
  10.8322010  72.7099340  64.9133198  11.2533018  72.8224970  63.4635317
  19.5183937  82.1032683  64.1248957  19.8271063  81.8581830  64.9971657
  20.3159419  82.3079321  63.6367827  19.5404549  84.2570593  56.3554334
  19.1009539  83.7646971  57.0487190  20.2912666  83.7143560  56.1146409
  12.0196888  80.4482133  56.3578962  12.8454908  80.1485905  55.9777605
  11.6690940  79.6789756  56.8068750  16.9878421  79.8008602  58.4276635
  16.3658430  79.1379307  58.1278863  17.6583288  79.8269734  57.7450283
  10.2205493  78.3668460  57.3167895   9.3837401  77.9390634  57.1351897
  10.1929138  78.5600903  58.2538687  17.0602948  68.2790390  68.0209141
  17.1091104  69.1552513  67.6386911  17.6025463  67.7367783  67.4480785
  27.5457794  78.8231513  67.3010278  26.7553338  78.8055652  66.7614778
  27.3091149  79.3619807  68.0559315  16.5491928  78.3512525  51.9035096
  16.6980048  79.0347989  51.2501769  17.3558371  78.3317615  52.4184552
  19.2902237  69.0321762  64.7755500  18.4205546  69.3255328  64.5038089
  19.5261717  69.6162207  65.4962764  14.3044561  74.3777703  52.9096165
  14.0590603  73.4740033  53.1076375  14.4740475  74.3794853  51.9675643
  21.9941271  65.2501379  62.2920920  22.5123215  65.9862406  61.9667409
  21.6396404  65.5565372  63.1267680  13.5740208  70.1106060  50.4082326
  12.8809453  70.1850415  49.7522362  13.3291960  69.3466404  50.9303843
  20.0487333  80.8460655  49.3746843  19.4761301  81.4650843  48.9217315
  20.6220127  81.3960017  49.9086765  23.2684593  81.1297806  50.5055426
  24.2015266  81.0643367  50.7088301  23.1807806  81.9654072  50.0469958
  25.8972610  80.4463676  47.4659373  25.8186241  80.1123540  48.3595131
  26.7182277  80.9385444  47.4650846  20.3172824  76.2339214  68.1763553
  21.2375834  76.4117813  68.3703599  20.2822407  75.2895260  68.0243252
  18.6177049  70.1071445  46.6517781  17.7108504  69.8104557  46.7280495
  18.8953030  69.8101263  45.7852067   9.5354989  71.4277808  57.1016827
   9.2157774  70.5743116  56.8091201   8.9888418  71.6426386  57.8574795
  13.3134897  74.1440249  60.8186334  13.5320907  75.0757357  60.8374368
  13.7260671  73.7848223  61.6041138  18.1862762  69.7173455  70.2089083
  18.0859489  70.6667812  70.1401174  17.9684304  69.3891694  69.3365153
  17.3875834  66.9658380  46.7929760  18.2494998  67.2913278  47.0525578
  17.5726178  66.1789876  46.2802826   9.4043249  75.0480720  59.0709949
   8.7106721  74.6334672  58.5579903  10.1516240  75.0901256  58.4743368
  18.0494032  73.1470594  69.0254145  17.5661114  73.9470954  69.2318034
  18.1354971  73.1578539  68.0721589  11.3179992  74.9798973  56.9475964
  11.2950680  75.0786661  55.9957847  11.6280628  75.8264124  57.2693130
  13.9767370  77.0375128  61.0622578  14.9310623  77.0059071  60.9952510
  13.7779893  76.5765752  61.8772804  14.5666752  75.6076244  63.6293376
  15.3859641  76.1020323  63.6528213  14.8403560  74.6908213  63.6010944
  12.3317599  82.5794748  58.0792776  12.1972067  81.8195149  57.5130774
  11.9149661  83.3035648  57.6121565  23.4676562  77.7631671  47.0869351
  24.1712412  77.9681674  47.7027007  22.7439210  78.3308433  47.3518435
  15.4886725  83.4764065  58.2911219  15.3719109  84.4209497  58.1889909
  14.6679171  83.1737626  58.6797018   9.8201666  69.9414378  64.3285573
  10.4660530  69.4313332  64.8172798   9.6118817  70.6783060  64.9028998
  22.3455058  77.0095226  69.8277714  23.2146218  77.1835878  69.4664349
  21.8661810  77.8289643  69.7053443  16.5141239  84.1292327  61.5067147
  17.4168485  84.1615937  61.8233642  16.2878609  83.1992778  61.5213483
  18.2694841  82.8823313  58.1677226  17.3190472  82.8825175  58.0541598
  18.5727327  82.1356048  57.6513261  14.1599157  67.0881995  68.4260587
  15.0230619  66.7318800  68.6363912  13.5864568  66.7495890  69.1135992
  34.0047534  88.7183852  59.2322988  34.6425944  88.5990599  58.5286328
  33.8868377  89.6664696  59.2910940  30.8137240  88.6711280  59.1684513
  30.4755752  88.5552344  58.2805048  31.6827009  88.2702445  59.1485519
  26.6724056  90.5246756  55.1581404  26.1088921  90.4336693  54.3897692
  26.5576451  89.7046661  55.6383896  31.2957023  89.8246132  65.1270719
  31.2845664  89.4298930  64.2551222  31.4577663  89.0912204  65.7204490
  24.2188488  92.0197948  57.9965624  25.0109780  91.6788772  57.5811924
  24.4585138  92.1292923  58.9167778  32.2523615  94.1917724  50.4695869
  31.6011595  94.7771804  50.0829883  33.0467978  94.7223919  50.5290906
  26.1779242  91.2806861  50.8683003  26.9510118  90.7335848  50.7295879
  26.5304641  92.1451110  51.0797465  28.0164285  92.6083243  64.0749902
  27.7254151  93.5128874  63.9596569  28.6521269  92.6499771  64.7893972
  28.9420491  89.9860092  60.6651262  29.5384064  89.7616114  59.9508225
  28.9995463  89.2444837  61.2676710  28.5145520  87.4399527  48.5001453
  28.7671041  86.9181048  47.7384916  27.5770079  87.2765673  48.6028137
  33.5588803  86.4435306  56.3076196  34.3451892  86.0254729  55.9566613
  33.8227507  87.3481398  56.4757845  33.7298880  91.8808156  51.0064853
  33.0944713  91.9542782  51.7185758  33.3996286  92.4701755  50.3283932
  38.9597230  86.3810539  57.2109175  39.6922402  85.8109756  57.4447004
  38.2036585  85.9932139  57.6515680  28.2341809  89.3427633  50.7025828
  28.1178067  88.6672537  51.3706912  28.3444068  88.8560007  49.8857981
  30.5773349  88.8037780  54.4072517  30.2131557  88.2768401  55.1185439
  31.4340465  88.4136249  54.2339003  32.9754170  92.2944659  61.0699696
  32.6754893  93.1969698  60.9615503  32.6305229  92.0276842  61.9220849
  26.4266651  88.7458456  57.1036401  25.5017148  88.6134670  57.3114092
  26.6751064  89.5252675  57.6006343  36.3751313  84.8127199  58.7497133
  35.4668191  84.7442607  58.4555894  36.3238909  85.2899144  59.5778959
  30.1968057  86.2885337  50.3880533  30.0767683  86.7342388  51.2266013
  29.5020646  86.6370655  49.8294071  23.7875462  88.3891729  57.9380190
  23.9167843  88.6426208  58.8519601  23.1072913  88.9819437  57.6184845
  27.9574949  99.0588979  54.0370664  27.8798979 100.0096804  54.1159144
  27.3536593  98.7134852  54.6945590  30.4492179  86.2316845  66.6932031
  29.6725513  86.7910765  66.6834895  31.0882742  86.7173628  67.2146901
  38.2412960  83.0143637  60.5275007  37.5987340  83.3076171  59.8814802
  37.7367888  82.8996558  61.3328204  35.8953124  86.7606811  51.2160867
  36.8070980  86.9934197  51.0408564  35.3862771  87.3443855  50.6535945
  28.7038552  89.0402298  66.2549998  29.4453236  89.5787342  65.9784821
  27.9975537  89.6668587  66.4121550  34.1793891  91.1831438  64.8522159
  34.5877247  90.7413849  64.1076792  33.4571153  90.6084066  65.1056352
  30.5324961  86.1204045  62.2255716  31.3786156  86.5443459  62.3690365
  30.4723599  85.4637670  62.9194279  34.5022706  91.7432629  58.6074448
  33.8731568  91.9078343  57.9050516  34.1148368  92.1574239  59.3785412
  38.3811938  92.6787067  55.9618812  37.6962976  93.0585968  55.4115845
  38.4655787  93.2882394  56.6950760  33.6824407  83.7808414  63.8836890
  33.4385338  84.5350474  63.3471166  33.9584337  84.1593761  64.7184137
  35.6362869  90.3247026  62.5614155  35.8479765  90.9678786  61.8848537
  35.5892618  89.4909342  62.0936086  33.2389098  82.9364847  59.4650728
  32.3773577  83.2346100  59.7567465  33.2651533  83.1535245  58.5331760
  30.0550668  91.4807037  55.8724533  30.5189013  91.7594740  55.0829156
  29.7907466  90.5790482  55.6897624  26.9474749  91.0278519  58.8104296
  27.5176106  91.4565787  58.1721781  27.5382861  90.7461103  59.5088482
  28.9919554  87.6030190  52.6814098  29.6943597  88.0551233  53.1488025
  28.6600182  86.9614008  53.3093992  27.4399915  86.1941946  67.0565308
  26.8098576  86.8758227  67.2900705  27.3336003  86.0825028  66.1118446
  22.7344888  85.8613742  57.9831232  21.9443942  86.1171271  57.5071343
  23.2256135  86.6762080  58.0883272  36.7508697  93.2018981  60.7336513
  37.5726141  92.7999169  60.4519194  36.7471100  93.0987216  61.6852629
  24.6859633  86.2258321  54.9414709  23.8890796  86.3377016  55.4598204
  24.4585225  86.5644974  54.0755599  30.5165301  92.7503025  62.8897223
  30.5809733  93.2123432  63.7255395  29.8076225  92.1200390  63.0179533
  21.0182591  86.1144233  60.4146223  21.2690629  86.9991243  60.6803799
  21.5542139  85.9348834  59.6421315  44.8414690  89.5457730  57.0821484
  44.0878399  88.9765128  56.9265489  44.9762232  89.5120394  58.0292119
  30.2313318  94.4171132  52.7576204  30.0958993  95.2622668  53.1861051
  30.7723131  94.6190410  51.9942137  26.7180658  80.4962712  69.4190559
  26.3247604  79.9428911  70.0938203  27.5346798  80.8073290  69.8097076
  23.6842716  91.9346570  53.3304129  24.1967236  92.7289820  53.4809693
  24.3365429  91.2372861  53.2637730  25.4937600  95.0512326  55.4126882
  25.6704229  95.9730291  55.2247866  26.2894434  94.7370746  55.8421262
  29.6348619  81.9120591  67.0110815  30.3758332  82.5127744  66.9315278
  29.8666542  81.1698229  66.4528858  24.7789957  87.0976958  65.2889045
  24.6643472  86.1962216  65.5896144  23.9234475  87.3440655  64.9373862
  31.8581795  95.0394699  66.8876546  31.4145649  94.2531077  66.5697450
  32.5199008  95.2273849  66.2220436  26.6168916  96.5690500  61.4137224
  27.1676341  96.4407564  60.6414218  25.7780392  96.8685389  61.0632117
  33.9563033  95.3197499  64.9157947  33.9381508  96.1406380  64.4238216
  34.8782953  95.1951574  65.1408088  30.4136087  92.8341628  65.7581455
  30.9464424  92.0729916  65.5280763  29.8850168  92.5415280  66.5005610
  21.6491633  90.2635224  54.1063699  22.4866855  90.6732233  53.8897407
  21.8269900  89.3234667  54.0763893  33.5456065  87.9310305  49.7947532
  33.0302688  88.7014910  50.0335920  33.2733373  87.2575441  50.4180594
  31.1303176  82.7760006  54.8532771  30.2744772  82.3866856  54.6738409
  31.5430127  82.8551967  53.9932556  32.6602322  80.3106349  59.2524330
  32.1567118  80.2736484  58.4392136  32.9532929  81.2199092  59.3120987
  38.5190339  90.6842660  51.7300706  37.7419782  90.3453819  51.2855868
  39.1981820  90.6895283  51.0555671  33.3342368  85.8037397  51.6207313
  33.0292503  86.1183546  52.4717457  34.2872810  85.8818817  51.6634646
  31.7788800  91.9627621  53.2700267  31.2510161  91.2280380  52.9573505
  31.2776302  92.7402297  53.0240236  36.7581646  90.1576641  58.3867314
  36.1005320  90.8475902  58.4747442  37.5622045  90.5473073  58.7301300
  26.5107527  82.6247287  55.6306879  27.0851279  82.4022468  54.8980072
  27.0978510  82.6935981  56.3835480  35.5687105  88.5121014  56.4371255
  36.0818986  89.1451006  56.9392965  36.2188328  87.9122209  56.0714615
  26.8377114  84.6551748  49.6502764  26.0014427  84.9926434  49.9712039
  26.6981884  84.5200728  48.7129901  29.9241400  89.7807831  46.2735240
  29.0168462  89.5497084  46.4726389  30.4212432  88.9845450  46.4609222
  32.8309479  98.4905338  49.1931927  32.1571178  98.7937035  49.8016884
  33.2175301  99.2934418  48.8437384  32.0467935  85.9870469  58.6829596
  31.1290497  86.2085416  58.5251284  32.4628079  86.0616780  57.8241303
  32.8302983  87.3861885  53.8132276  33.5774802  87.8983282  53.5039398
  33.0994573  87.0645938  54.6736670  31.1029633  89.8820426  50.7959230
  30.1940853  89.5979458  50.8931700  31.1324717  90.3019504  49.9362537
  36.3348901  93.4927015  54.5650398  35.8811228  92.6517925  54.6215589
  35.7042867  94.1288414  54.9025178  35.2781820  84.4219001  55.7951065
  34.5404577  83.9096387  56.1261308  35.5308594  83.9819383  54.9834342
  34.7781840  95.3303512  55.5000216  35.0704814  95.8908569  54.7812582
  35.2880461  95.6232073  56.2553375  21.6717804  87.6025940  54.7774433
  21.4742203  87.0095301  54.0525499  21.1164468  87.2978150  55.4950371
  29.6514527  87.4949046  56.8969026  29.7063137  86.5422883  56.8211502
  28.8405729  87.6508485  57.3810324  30.8005721  91.4229169  48.1347309
  30.3625151  90.7065028  47.6752946  31.5416162  91.6505284  47.5732400
  27.5906887  86.1126106  54.6559405  26.7774753  86.4120277  55.0624597
  28.0865881  85.7181795  55.3733887  29.7415465  96.1083863  56.5893669
  29.6991644  96.3344709  55.6602201  30.6578164  95.8747238  56.7379471
  33.1881099  86.5767930  63.4874299  33.5430487  86.8039404  64.3468764
  33.8353230  86.9086307  62.8651554  38.9178836  89.6986366  54.1923628
  38.7796734  89.8887962  53.2644817  38.5615055  90.4605749  54.6491679
  27.0820962  83.6844462  60.2720640  27.7220341  83.5433221  59.5743603
  26.2498493  83.3978975  59.8959242  38.9448215  91.7662893  59.2034899
  39.3784722  91.6738182  60.0517953  39.6579796  91.7420394  58.5654915
  27.8581266  92.9846892  56.3855632  28.6521864  92.4897212  56.1838207
  27.1472958  92.4564755  56.0223338  32.6776110  95.3664987  60.7368000
  32.7313133  95.9355924  61.5045716  31.8090892  95.5366873  60.3722037
  24.1664029  87.1289974  52.4615385  23.2361617  87.0674429  52.6785347
  24.2621501  86.6065926  51.6652026  24.0849578  83.6544787  55.0493626
  24.3456396  84.5690120  54.9402787  24.9066751  83.1869229  55.1990239
  25.5574504  85.0682544  62.2192451  26.2297557  84.8599906  61.5705100
  24.7304290  84.8704630  61.7797683  39.8063765  91.8086594  61.7367785
  39.9999655  92.7132405  61.9827059  39.7064383  91.3494013  62.5706370
  34.8678874  91.9593337  67.3108665  34.7164380  91.7303888  66.3938749
  34.8583553  92.9163938  67.3240010  31.6364210  89.5325250  62.2954932
  32.5656270  89.6836409  62.1223899  31.2155240  89.6209270  61.4403578
  30.4352542  93.5575914  60.0653469  30.2963628  93.1894698  60.9379407
  29.6467138  94.0723553  59.8937427  31.0300694  98.6585010  51.4079006
  31.2052450  98.1873054  52.2224628  30.3433482  99.2850777  51.6360266
  31.9857757  92.9357517  57.4542307  31.6507590  92.8958287  58.3499957
  31.4861703  92.2702233  56.9812717  25.9602001  88.3425147  62.9794888
  25.8221799  87.6105386  63.5806427  26.8706924  88.2534047  62.6979076
  34.9216949  90.2813551  47.7279367  34.3046119  89.5560379  47.6312419
  34.4533437  91.0422911  47.3846441  28.5884302  88.0545106  62.4678568
  29.2983920  87.4138298  62.4265186  28.5453610  88.3058001  63.3904749
  36.5771080  94.9912459  65.3885147  36.5183627  94.3071679  64.7215730
  36.9790599  95.7331449  64.9365773  27.3013236  85.0410324  64.2874207
  26.7650593  84.5901062  64.9395804  26.7129944  85.1756233  63.5444672
  25.5961779 101.8074373  58.1818866  25.8358377 102.4392897  58.8597884
  24.7530976 101.4562413  58.4684225  26.7115495  84.4998975  46.8500671
  25.8344961  84.3787776  46.4862918  27.1873248  83.7085054  46.5979560
  36.5788488  92.9552043  63.6199127  35.6915266  92.6177965  63.7425526
  37.1487039  92.2235075  63.8567892  18.2317635  89.2876135  56.9442178
  18.9188675  88.9737865  56.3563193  18.0765763  90.1917500  56.6709429
  23.0352357  84.1766332  61.3727202  22.9510546  83.5692001  60.6377612
  22.2135063  84.6675350  61.3736698  30.1089641  97.6153496  60.5860370
  30.0359813  98.4208467  61.0979674  29.6667034  97.8145461  59.7608391
  29.8979421  96.8525266  54.0963191  29.1146943  97.3946946  54.1901416
  30.5972166  97.3699245  54.4957433  33.2076071  82.6619895  56.7397397
  33.7044770  81.9089857  56.4198467  32.4363052  82.6984212  56.1740606
  41.0605828  88.3660261  58.3815688  41.0495704  89.2484976  58.0109621
  40.1923208  88.0131811  58.1870225  32.5688325  97.5140330  62.7418529
  33.2816297  98.1487794  62.6694430  32.0778353  97.6104196  61.9258530
  34.2905851  91.4191582  54.3135820  33.3562130  91.5393045  54.1440525
  34.4682520  90.5164049  54.0495830  29.7911040  84.8037278  56.4669081
  29.4208827  84.2508318  57.1549987  30.2870132  84.1995412  55.9144081
  37.6778403  87.2608902  54.8485854  38.1438855  88.0936893  54.7746157
  38.1285903  86.7953883  55.5531113  27.6200238  95.2634773  63.5624099
  28.3209698  95.8971256  63.7153494  27.1495353  95.6049505  62.8019739
  35.7454634  93.6052723  51.8472006  36.0214478  93.4909317  52.7565880
  34.8759133  93.2070208  51.8084179  35.4201524  87.8179381  61.3876650
  34.7672974  88.0655288  60.7329102  35.7981904  87.0043519  61.0539127
  32.3808698  97.8539074  55.4904820  32.5631092  97.0360730  55.9532572
  33.2041684  98.0706766  55.0529710  32.7150863  96.7807259  52.7519868
  33.2438630  96.2699713  52.1390031  32.9779083  96.4649789  53.6165402
  31.4689097  88.5599192  67.8742687  30.7929734  88.4593321  68.5445062
  32.2916731  88.4038405  68.3378684  23.2167956  94.7971128  60.4955202
  23.8021393  94.0514816  60.6283106  23.0192795  95.1075085  61.3791866
  26.0706611  97.8322376  55.5117644  25.4016987  98.3168503  55.0281684
  25.9319481  98.0791596  56.4261023  17.8085611  87.3676728  59.2159645
  17.8469710  86.8340319  60.0096763  17.3025904  86.8411934  58.5970622
  30.2111880  99.8666119  62.1100303  30.7630188 100.0297741  62.8749388
  30.5518073 100.4570557  61.4380328  25.1876373  82.2141269  62.7122187
  25.2517700  83.0756100  62.2999585  25.1243493  81.6015271  61.9794546
  24.6628646  84.2864401  66.3595222  25.2900685  83.9041479  66.9732746
  23.8056565  84.0678603  66.7250914  35.0622754  94.6927377  67.9648957
  35.6062658  95.3057335  67.4703912  34.4809599  95.2506955  68.4815970
  21.4394188  86.0940831  52.2913577  21.7347630  85.1851509  52.2380630
  20.5382224  86.0728570  51.9694579  33.3480267  97.8148095  59.0963985
  33.2231407  97.0137834  58.5874930  34.0059358  98.3094288  58.6077955
  24.9688435  84.1696827  58.2741125  24.2475021  84.7832795  58.1348598
  25.7581691  84.7054592  58.1957771  35.4115176  95.6157115  60.7243535
  34.4645511  95.4962466  60.6521862  35.7597949  94.7279613  60.8069796
  27.7714749  81.5051254  64.5481777  28.2949151  81.7513550  65.3108086
  27.5527082  82.3371288  64.1284914  23.1682030  83.7754928  52.4152902
  22.8394736  82.8952307  52.2328008  23.5221401  83.7202597  53.3029291
  32.4161609  95.4109831  56.9247887  32.2686571  94.4826538  57.1055457
  33.2415102  95.4329922  56.4404962  26.2823853  84.0627898  52.7828379
  26.6219926  84.5913819  52.0606988  26.7295974  84.4008304  53.5586946
  36.0195731  96.2338390  58.0112760  36.9442278  96.0281251  57.8737211
  35.8511034  95.9854791  58.9202101  28.9767294  82.4464949  62.2331447
  28.6364114  81.6472762  62.6352127  28.2706300  82.7466660  61.6608281
  27.1522345  86.2233382  58.4950749  27.0066925  86.5373685  59.3875031
  26.6747548  86.8418282  57.9421648  29.0118727  83.2135930  58.5431639
  28.9980296  82.3177023  58.2063937  29.7291156  83.2206594  59.1769925
  30.8644858  83.6473270  60.5884766  30.6062636  84.5690341  60.5869097
  30.3329899  83.2503705  61.2785230  35.8091047  96.7524057  53.3674851
  35.9827925  96.1870480  52.6148704  36.3019938  97.5524952  53.1854341
  21.6268007  88.7638726  61.4338410  21.0821475  89.5398534  61.5658685
  22.5047357  89.1109531  61.2757532  41.6630438  89.5160480  54.9865151
  42.1061584  88.7667805  54.5884274  40.7856948  89.5070616  54.6038883
  36.7966219  96.0690821  50.4671750  37.4917124  96.6897514  50.6859064
  37.1389370  95.2186173  50.7424128  22.4134029  87.8908622  64.3268567
  21.6715765  88.0391258  64.9133198  22.0926773  88.1516888  63.4635317
  38.6957643  93.5190527  51.9959081  39.2208967  93.8577800  51.2708401
  38.6079995  92.5837542  51.8122215  30.3577691  97.4324601  64.1248957
  30.6664818  97.1873747  64.9971657  31.1553173  97.6371239  63.6367827
  30.3798303  99.5862510  56.3554334  29.9403294  99.0938889  57.0487190
  31.1306420  99.0435478  56.1146409  22.8590642  95.7774051  56.3578962
  23.6848662  95.4777823  55.9777605  22.5084694  95.0081674  56.8068750
  27.8272175  95.1300519  58.4276635  27.2052185  94.4671224  58.1278863
  28.4977042  95.1561651  57.7450283  21.0599247  93.6960378  57.3167895
  20.2231156  93.2682552  57.1351897  21.0322893  93.8892821  58.2538687
  27.8996703  83.6082307  68.0209141  27.9484858  84.4844430  67.6386911
  28.4419217  83.0659700  67.4480785  38.3851549  94.1523431  67.3010278
  37.5947092  94.1347570  66.7614778  38.1484903  94.6911724  68.0559315
  38.5049424  91.0015897  64.6143007  38.5547429  90.8365904  65.5558530
  38.3963347  90.1343156  64.2240888  27.3885682  93.6804443  51.9035096
  27.5373803  94.3639907  51.2501769  28.1952126  93.6609533  52.4184552
  35.7953186  86.9846825  65.9302314  36.6963049  86.8453290  65.6386312
  35.8701161  87.1501280  66.8700491  30.1295991  84.3613680  64.7755500
  29.2599301  84.6547246  64.5038089  30.3655472  84.9454125  65.4962764
  40.0067621  93.4212839  64.8585029  39.7152429  93.7842819  65.6948490
  39.3939752  92.7079847  64.6798361  41.2063303  90.9865718  57.3787599
  42.0410194  91.4255522  57.5425159  41.3422432  90.5104372  56.5595845
  38.2554809  88.5445453  63.3265087  38.7308930  88.7373099  62.5183938
  37.3320374  88.6004639  63.0808470  25.1438315  89.7069620  52.9096165
  24.8984357  88.8031950  53.1076375  25.3134230  89.7086771  51.9675643
  24.4133963  85.4397978  50.4082326  23.7203208  85.5142333  49.7522362
  24.1685715  84.6758322  50.9303843  30.8881088  96.1752573  49.3746843
  30.3155055  96.7942760  48.9217315  31.4613882  96.7251935  49.9086765
  36.9556478  85.4211213  61.5593392  37.9073901  85.5209311  61.5805616
  36.7859928  84.6289482  62.0691477  34.9770857  82.5066796  61.7452793
  34.3820789  82.7871809  61.0499282  34.6920554  82.9960697  62.5169534
  34.1078348  96.4589723  50.5055426  35.0409021  96.3935285  50.7088301
  34.0201561  97.2945990  50.0469958  36.7366364  95.7755594  47.4659373
  36.6579996  95.4415457  48.3595131  37.5576031  96.2677362  47.4650846
  39.4344556  88.6417333  60.6735692  39.4020876  87.7033334  60.8595376
  40.0445179  88.7201370  59.9401517  39.5839044  85.4328376  60.7193975
  39.0678093  84.6486833  60.5323904  40.4678993  85.1047093  60.8840494
  45.2521105  89.7033340  59.8141729  45.9824494  89.4418628  60.3749432
  44.6428051  88.9662062  59.8543797  43.3336403  87.8441202  60.4116180
  42.6069566  87.7097167  59.8032671  42.9183689  88.1518031  61.2172898
  31.1566579  91.5631132  68.1763553  32.0769588  91.7409731  68.3703599
  31.1216162  90.6187177  68.0243252  20.3748744  86.7569726  57.1016827
  20.0551528  85.9035034  56.8091201  19.8282172  86.9718304  57.8574795
  24.1528651  89.4732167  60.8186334  24.3714661  90.4049275  60.8374368
  24.5654425  89.1140141  61.6041138  29.0256517  85.0465372  70.2089083
  28.9253244  85.9959729  70.1401174  28.8078059  84.7183611  69.3365153
  20.2437004  90.3772637  59.0709949  19.5500475  89.9626590  58.5579903
  20.9909995  90.4193174  58.4743368  34.8305791  80.5683882  56.1386304
  35.3305569  80.6800416  55.3300622  35.4741399  80.2644935  56.7787112
  28.8887787  88.4762511  69.0254145  28.4054869  89.2762871  69.2318034
  28.9748726  88.4870456  68.0721589  22.1573746  90.3090891  56.9475964
  22.1344435  90.4078578  55.9957847  22.4674383  91.1556042  57.2693130
  24.8161124  92.3667046  61.0622578  25.7704378  92.3350988  60.9952510
  24.6173648  91.9057670  61.8772804  25.4060506  90.9368162  63.6293376
  26.2253395  91.4312241  63.6528213  25.6797314  90.0200130  63.6010944
  23.1711353  97.9086666  58.0792776  23.0365821  97.1487066  57.5130774
  22.7543415  98.6327565  57.6121565  34.3070316  93.0923589  47.0869351
  35.0106166  93.2973592  47.7027007  33.5832965  93.6600351  47.3518435
  35.1368126  88.8433450  53.2071622  35.0803328  89.3002002  52.3679254
  35.6896469  88.0824135  53.0294464  43.2585270  87.3719255  56.5393033
  42.6984828  87.4412445  57.3124595  42.6528774  87.1960240  55.8192529
  26.3280479  98.8055983  58.2911219  26.2112863  99.7501415  58.1889909
  25.5072925  98.5029544  58.6797018  36.2157014  93.5306118  49.1367812
  37.0502617  93.0987317  48.9545286  36.0541356  93.3588132  50.0644706
  35.8702906  90.0338232  50.5024151  35.8151710  89.8682503  49.5612595
  35.2448961  90.7414264  50.6586341  20.6595421  85.2706296  64.3285573
  21.3054284  84.7605250  64.8172798  20.4512572  86.0074978  64.9028998
  33.1848813  92.3387143  69.8277714  34.0539973  92.5127796  69.4664349
  32.7055564  93.1581560  69.7053443  27.3534993  99.4584244  61.5067147
  28.2562240  99.4907855  61.8233642  27.1272363  98.5284695  61.5213483
  29.1088595  98.2115231  58.1677226  28.1584226  98.2117093  58.0541598
  29.4121081  97.4647966  57.6513261  24.9992912  82.4173913  68.4260587
  25.8624373  82.0610718  68.6363912  24.4258322  82.0787808  69.1135992
  44.8441289 104.0475769  59.2322988  45.4819699 103.9282517  58.5286328
  44.7262132 104.9956613  59.2910940  41.6530995 104.0003197  59.1684513
  41.3149506 103.8844262  58.2805048  42.5220763 103.5994363  59.1485519
  37.5117811 105.8538674  55.1581404  36.9482676 105.7628611  54.3897692
  37.3970206 105.0338578  55.6383896  42.1350778 105.1538049  65.1270719
  42.1239419 104.7590847  64.2551222  42.2971417 104.4204122  65.7204490
  35.0582243 107.3489865  57.9965624  35.8503534 107.0080690  57.5811924
  35.2978893 107.4584841  58.9167778  43.0917369 109.5209642  50.4695869
  42.4405349 110.1063722  50.0829883  43.8861732 110.0515836  50.5290906
  37.0172996 106.6098779  50.8683003  37.7903872 106.0627766  50.7295879
  37.3698395 107.4743028  51.0797465  38.8558039 107.9375161  64.0749902
  38.5647905 108.8420792  63.9596569  39.4915023 107.9791689  64.7893972
  39.7814246 105.3152010  60.6651262  40.3777818 105.0908032  59.9508225
  39.8389217 104.5736755  61.2676710  39.3539274 102.7691445  48.5001453
  39.6064795 102.2472966  47.7384916  38.4163833 102.6057590  48.6028137
  44.3982557 101.7727223  56.3076196  45.1845646 101.3546646  55.9566613
  44.6621261 102.6773315  56.4757845  44.5692634 107.2100074  51.0064853
  43.9338467 107.2834700  51.7185758  44.2390041 107.7993672  50.3283932
  49.7990984 101.7102456  57.2109175  50.5316156 101.1401673  57.4447004
  49.0430340 101.3224057  57.6515680  39.0735563 104.6719551  50.7025828
  38.9571821 103.9964454  51.3706912  39.1837823 104.1851925  49.8857981
  41.4167104 104.1329698  54.4072517  41.0525311 103.6060319  55.1185439
  42.2734220 103.7428167  54.2339003  47.3216405  95.4224031  61.6703783
  46.9899729  96.2919441  61.4464998  46.7262018  95.1060315  62.3497814
  41.0572591  99.1619598  49.4033866  41.2246993 100.0299834  49.7704337
  40.8669760  99.3246879  48.4795155  43.8147924 107.6236577  61.0699696
  43.5148647 108.5261615  60.9615503  43.4698984 107.3568760  61.9220849
  37.2660406 104.0750373  57.1036401  36.3410902 103.9426587  57.3114092
  37.5144819 104.8544593  57.6006343  47.2145068 100.1419117  58.7497133
  46.3061945 100.0734525  58.4555894  47.1632664 100.6191062  59.5778959
  41.0361812 101.6177255  50.3880533  40.9161437 102.0634306  51.2266013
  40.3414400 101.9662573  49.8294071  34.6269217 103.7183647  57.9380190
  34.7561598 103.9718126  58.8519601  33.9466668 104.3111355  57.6184845
  41.2885934 101.5608762  66.6932031  40.5119268 102.1202682  66.6834895
  41.9276497 102.0465545  67.2146901  49.0806714  98.3435555  60.5275007
  48.4381095  98.6368088  59.8814802  48.5761643  98.2288475  61.3328204
  46.7346878 102.0898728  51.2160867  47.6464734 102.3226115  51.0408564
  46.2256525 102.6735772  50.6535945  39.5432306 104.3694216  66.2549998
  40.2846990 104.9079260  65.9784821  38.8369291 104.9960504  66.4121550
  45.0187646 106.5123356  64.8522159  45.4271002 106.0705767  64.1076792
  44.2964907 105.9375984  65.1056352  41.3718716 101.4495963  62.2255716
  42.2179911 101.8735376  62.3690365  41.3117353 100.7929587  62.9194279
  45.3416460 107.0724547  58.6074448  44.7125323 107.2370261  57.9050516
  44.9542122 107.4866156  59.3785412  49.2205692 108.0078985  55.9618812
  48.5356730 108.3877886  55.4115845  49.3049542 108.6174311  56.6950760
  44.5218161  99.1100331  63.8836890  44.2779093  99.8642392  63.3471166
  44.7978092  99.4885679  64.7184137  46.4756624 105.6538944  62.5614155
  46.6873519 106.2970704  61.8848537  46.4286372 104.8201260  62.0936086
  44.0782853  98.2656764  59.4650728  43.2167332  98.5638018  59.7567465
  44.1045287  98.4827163  58.5331760  40.8944422 106.8098955  55.8724533
  41.3582768 107.0886658  55.0829156  40.6301220 105.9082399  55.6897624
  37.7868503 106.3570436  58.8104296  38.3569860 106.7857705  58.1721781
  38.3776615 106.0753021  59.5088482  39.8313308 102.9322107  52.6814098
  40.5337352 103.3843151  53.1488025  39.4993937 102.2905926  53.3093992
  38.2793670 101.5233864  67.0565308  37.6492330 102.2050145  67.2900705
  38.1729758 101.4116945  66.1118446  33.5738642 101.1905660  57.9831232
  32.7837696 101.4463188  57.5071343  34.0649890 102.0053998  58.0883272
  47.5902452 108.5310899  60.7336513  48.4119895 108.1291086  60.4519194
  47.5864855 108.4279133  61.6852629  35.5253388 101.5550239  54.9414709
  34.7284551 101.6668933  55.4598204  35.2978980 101.8936891  54.0755599
  41.3559055 108.0794942  62.8897223  41.4203488 108.5415350  63.7255395
  40.6469979 107.4492307  63.0179533  31.8576345 101.4436150  60.4146223
  32.1084384 102.3283160  60.6803799  32.3935894 101.2640752  59.6421315
  55.6808445 104.8749648  57.0821484  54.9272153 104.3057046  56.9265489
  55.8155986 104.8412312  58.0292119  41.0707073 109.7463050  52.7576204
  40.9352748 110.5914586  53.1861051  41.6116885 109.9482327  51.9942137
  37.5574412  95.8254630  69.4190559  37.1641358  95.2720828  70.0938203
  38.3740553  96.1365208  69.8097076  34.5236470 107.2638488  53.3304129
  35.0360991 108.0581738  53.4809693  35.1759183 106.5664778  53.2637730
  36.3331355 110.3804244  55.4126882  36.5097983 111.3022209  55.2247866
  37.1288188 110.0662663  55.8421262  40.4742373  97.2412509  67.0110815
  41.2152087  97.8419662  66.9315278  40.7060296  96.4990147  66.4528858
  35.6183711 102.4268876  65.2889045  35.5037227 101.5254133  65.5896144
  34.7628229 102.6732573  64.9373862  42.6975549 110.3686616  66.8876546
  42.2539403 109.5822995  66.5697450  43.3592763 110.5565767  66.2220436
  44.7956787 110.6489416  64.9157947  44.7775263 111.4698297  64.4238216
  45.7176707 110.5243491  65.1408088  41.2529841 108.1633546  65.7581455
  41.7858178 107.4021834  65.5280763  40.7243923 107.8707198  66.5005610
  44.4199536  93.2693612  61.2875097  44.0763806  94.1595253  61.2114208
  44.7878499  93.0795269  60.4244682  32.4885387 105.5927142  54.1063699
  33.3260609 106.0024151  53.8897407  32.6663655 104.6526584  54.0763893
  44.3849819 103.2602223  49.7947532  43.8696443 104.0306827  50.0335920
  44.1127128 102.5867359  50.4180594  41.9696930  98.1051924  54.8532771
  41.1138527  97.7158774  54.6738409  42.3823882  98.1843884  53.9932556
  43.4996077  95.6398267  59.2524330  42.9960872  95.6028402  58.4392136
  43.7926684  96.5491010  59.3120987  39.7438963  95.7236997  58.2590512
  40.6091959  95.5279805  57.8996402  39.8116472  95.4947348  59.1859869
  49.3584093 106.0134577  51.7300706  48.5813536 105.6745737  51.2855868
  50.0375574 106.0187201  51.0555671  44.1736122 101.1329315  51.6207313
  43.8686258 101.4475464  52.4717457  45.1266564 101.2110735  51.6634646
  42.6182554 107.2919538  53.2700267  42.0903916 106.5572298  52.9573505
  42.1170057 108.0694215  53.0240236  47.5975400 105.4868559  58.3867314
  46.9399075 106.1767820  58.4747442  48.4015799 105.8764991  58.7301300
  37.3501282  97.9539205  55.6306879  37.9245034  97.7314386  54.8980072
  37.9372264  98.0227899  56.3835480  46.4080859 103.8412931  56.4371255
  46.9212741 104.4742923  56.9392965  47.0582083 103.2414127  56.0714615
  37.6770869  99.9843666  49.6502764  36.8408181 100.3218352  49.9712039
  37.5375639  99.8492645  48.7129901  39.6523949  94.8280453  54.3581948
  38.9988362  94.5129471  53.7338563  39.6104424  94.2056194  55.0841771
  40.7635154 105.1099748  46.2735240  39.8562216 104.8789002  46.4726389
  41.2606186 104.3137368  46.4609222  42.8861690 101.3162387  58.6829596
  41.9684251 101.5377334  58.5251284  43.3021833 101.3908697  57.8241303
  43.6696738 102.7153803  53.8132276  44.4168557 103.2275200  53.5039398
  43.9388327 102.3937855  54.6736670  41.9423388 105.2112343  50.7959230
  41.0334607 104.9271376  50.8931700  41.9718472 105.6311422  49.9362537
  47.1742655 108.8218933  54.5650398  46.7204982 107.9809843  54.6215589
  46.5436622 109.4580331  54.9025178  46.1175575  99.7510919  55.7951065
  45.3798332  99.2388305  56.1261308  46.3702348  99.3111300  54.9834342
  45.6175594 110.6595430  55.5000216  45.9098569 111.2200487  54.7812582
  46.1274215 110.9523991  56.2553375  46.2187202  92.5287171  56.3892835
  46.5246079  91.6684534  56.1018750  46.9439807  93.1204791  56.1891829
  32.5111558 102.9317857  54.7774433  32.3135958 102.3387218  54.0525499
  31.9558222 102.6270068  55.4950371  40.4908282 102.8240964  56.8969026
  40.5456892 101.8714800  56.8211502  39.6799484 102.9800403  57.3810324
  41.6399476 106.7521087  48.1347309  41.2018906 106.0356946  47.6752946
  42.3809916 106.9797202  47.5732400  38.4300642 101.4418024  54.6559405
  37.6168507 101.7412194  55.0624597  38.9259636 101.0473712  55.3733887
  40.5809220 111.4375781  56.5893669  40.5385398 111.6636627  55.6602201
  41.4971918 111.2039155  56.7379471  44.0274853 101.9059848  63.4874299
  44.3824241 102.1331321  64.3468764  44.6746985 102.2378225  62.8651554
  49.7572590 105.0278284  54.1923628  49.6190489 105.2179880  53.2644817
  49.4008809 105.7897667  54.6491679  37.9214717  99.0136379  60.2720640
  38.5614096  98.8725138  59.5743603  37.0892247  98.7270893  59.8959242
  49.7841970 107.0954811  59.2034899  50.2178477 107.0030100  60.0517953
  50.4973551 107.0712312  58.5654915  38.6975020 108.3138810  56.3855632
  39.4915619 107.8189130  56.1838207  37.9866713 107.7856673  56.0223338
  43.5169865 110.6956905  60.7368000  43.5706887 111.2647841  61.5045716
  42.6484646 110.8658790  60.3722037  35.0057784 102.4581891  52.4615385
  34.0755372 102.3966347  52.6785347  35.1015256 101.9357844  51.6652026
  34.9243333  98.9836704  55.0493626  35.1850150  99.8982037  54.9402787
  35.7460505  98.5161147  55.1990239  36.3968258 100.3974461  62.2192451
  37.0691312 100.1891824  61.5705100  35.5698045 100.1996547  61.7797683
  50.6457520 107.1378512  61.7367785  50.8393410 108.0424322  61.9827059
  50.5458138 106.6785931  62.5706370  42.2993830  97.0236402  64.2358112
  41.6521745  97.7226352  64.1422588  43.0694846  97.4572546  64.6034360
  45.7072628 107.2885254  67.3108665  45.5558135 107.0595806  66.3938749
  45.6977308 108.2455856  67.3240010  42.4757965 104.8617167  62.2954932
  43.4050025 105.0128327  62.1223899  42.0548995 104.9501188  61.4403578
  41.2746296 108.8867832  60.0653469  41.1357382 108.5186616  60.9379407
  40.4860893 109.4015471  59.8937427  42.8251512 108.2649434  57.4542307
  42.4901344 108.2250204  58.3499957  42.3255457 107.5994150  56.9812717
  36.7995756 103.6717064  62.9794888  36.6615553 102.9397303  63.5806427
  37.7100679 103.5825964  62.6979076  45.7610703 105.6105469  47.7279367
  45.1439874 104.8852297  47.6312419  45.2927192 106.3714829  47.3846441
  39.4278056 103.3837024  62.4678568  40.1377675 102.7430216  62.4265186
  39.3847364 103.6349919  63.3904749  47.4164835 110.3204377  65.3885147
  47.3577381 109.6363597  64.7215730  47.8184353 111.0623367  64.9365773
  38.1406990 100.3702242  64.2874207  37.6044347  99.9192980  64.9395804
  37.5523699 100.5048150  63.5444672  37.5509249  99.8290893  46.8500671
  36.6738715  99.7079694  46.4862918  38.0267002  99.0376971  46.5979560
  47.4182242 108.2843961  63.6199127  46.5309021 107.9469883  63.7425526
  47.9880793 107.5526992  63.8567892  29.0711389 104.6168053  56.9442178
  29.7582429 104.3029783  56.3563193  28.9159518 105.5209417  56.6709429
  33.8746111  99.5058249  61.3727202  33.7904300  98.8983919  60.6377612
  33.0528818  99.9967268  61.3736698  40.7373175 112.1817183  54.0963191
  39.9540697 112.7238864  54.1901416  41.4365920 112.6991163  54.4957433
  44.0469825  97.9911813  56.7397397  44.5438525  97.2381775  56.4198467
  43.2756807  98.0276129  56.1740606  51.8999583 103.6952178  58.3815688
  51.8889459 104.5776894  58.0109621  51.0316962 103.3423729  58.1870225
  43.4082079 112.8432247  62.7418529  44.1210051 113.4779712  62.6694430
  42.9172108 112.9396113  61.9258530  45.1299606 106.7483500  54.3135820
  44.1955885 106.8684962  54.1440525  45.3076274 105.8455967  54.0495830
  40.6304794 100.1329196  56.4669081  40.2602582  99.5800236  57.1549987
  41.1263886  99.5287329  55.9144081  48.5172157 102.5900819  54.8485854
  48.9832610 103.4228811  54.7746157  48.9679658 102.1245801  55.5531113
  38.4593993 110.5926691  63.5624099  39.1603452 111.2263174  63.7153494
  37.9889108 110.9341422  62.8019739  46.5848388 108.9344641  51.8472006
  46.8608232 108.8201235  52.7565880  45.7152887 108.5362125  51.8084179
  46.4888820  94.9581406  58.8876756  45.5751900  95.1885633  59.0558963
  46.9181922  95.0419850  59.7390788  46.2595279 103.1471298  61.3876650
  45.6066729 103.3947206  60.7329102  46.6375658 102.3335436  61.0539127
  43.2202452 113.1830991  55.4904820  43.4024847 112.3652647  55.9532572
  44.0435438 113.3998684  55.0529710  43.5544618 112.1099177  52.7519868
  44.0832384 111.5991631  52.1390031  43.8172838 111.7941707  53.6165402
  42.3082852 103.8891109  67.8742687  41.6323489 103.7885239  68.5445062
  43.1310485 103.7330323  68.3378684  34.0561711 110.1263046  60.4955202
  34.6415147 109.3806734  60.6283106  33.8586549 110.4367003  61.3791866
  28.6479365 102.6968646  59.2159645  28.6863465 102.1632237  60.0096763
  28.1419658 102.1703852  58.5970622  36.0270128  97.5433187  62.7122187
  36.0911454  98.4048017  62.2999585  35.9637248  96.9307188  61.9794546
  35.5022400  99.6156319  66.3595222  36.1294439  99.2333396  66.9732746
  34.6450319  99.3970521  66.7250914  45.9016509 110.0219294  67.9648957
  46.4456413 110.6349253  67.4703912  45.3203354 110.5798873  68.4815970
  32.2787943 101.4232748  52.2913577  32.5741384 100.5143427  52.2380630
  31.3775979 101.4020488  51.9694579  44.1874022 113.1440012  59.0963985
  44.0625161 112.3429752  58.5874930  44.8453113 113.6386206  58.6077955
  35.8082190  99.4988745  58.2741125  35.0868776 100.1124712  58.1348598
  36.5975446 100.0346510  58.1957771  46.2508930 110.9449032  60.7243535
  45.3039266 110.8254384  60.6521862  46.5991703 110.0571530  60.8069796
  38.6108503  96.8343171  64.5481777  39.1342905  97.0805468  65.3108086
  38.3920837  97.6663206  64.1284914  34.0075785  99.1046846  52.4152902
  33.6788491  98.2244225  52.2328008  34.3615155  99.0494515  53.3029291
  43.2555363 110.7401749  56.9247887  43.1080326 109.8118456  57.1055457
  44.0808857 110.7621839  56.4404962  37.1217608  99.3919816  52.7828379
  37.4613680  99.9205737  52.0606988  37.5689728  99.7300222  53.5586946
  46.8589485 111.5630307  58.0112760  47.7836033 111.3573169  57.8737211
  46.6904789 111.3146708  58.9202101  39.8161049  97.7756866  62.2331447
  39.4757869  96.9764679  62.6352127  39.1100055  98.0758577  61.6608281
  40.4677520  94.8606179  60.6858770  41.2903590  94.3866657  60.5637661
  40.7115584  95.6396663  61.1857457  39.1085755  97.8894437  50.9821672
  39.8294117  98.2675690  50.4785389  38.4851059  98.6083314  51.0856650
  43.2516878  98.5939586  51.9180004  43.4680492  99.4764224  51.6168833
  42.7710945  98.2025800  51.1885646  37.9916099 101.5525299  58.4950749
  37.8460680 101.8665603  59.3875031  37.5141303 102.1710200  57.9421648
  39.8512482  98.5427847  58.5431639  39.8374051  97.6468941  58.2063937
  40.5684910  98.5498511  59.1769925  41.7038613  98.9765188  60.5884766
  41.4456391  99.8982258  60.5869097  41.1723653  98.5795622  61.2785230
  46.6484801 112.0815975  53.3674851  46.8221679 111.5162397  52.6148704
  47.1413693 112.8816870  53.1854341  32.4661761 104.0930644  61.4338410
  31.9215229 104.8690452  61.5658685  33.3441111 104.4401448  61.2757532
  39.2549378  97.4242228  53.8119209  39.3765289  96.4958874  54.0110096
  38.9651420  97.4380914  52.8997524  42.1240568  95.1097138  56.9485929
  42.1462265  95.1736471  55.9937908  42.5408627  94.2701647  57.1426435
  52.5024193 104.8452398  54.9865151  52.9455339 104.0959723  54.5884274
  51.6250703 104.8362534  54.6038883  47.6359974 111.3982739  50.4671750
  48.3310879 112.0189432  50.6859064  47.9783124 110.5478090  50.7424128
  33.2527783 103.2200540  64.3268567  32.5109519 103.3683175  64.9133198
  32.9320527 103.4808806  63.4635317  49.5351397 108.8482445  51.9959081
  50.0602721 109.1869717  51.2708401  49.4473750 107.9129460  51.8122215
  41.1971446 112.7616518  64.1248957  41.5058572 112.5165665  64.9971657
  41.9946928 112.9663157  63.6367827  38.6665930 110.4592437  58.4276635
  38.0445939 109.7963142  58.1278863  39.3370797 110.4853569  57.7450283
  31.8993002 109.0252295  57.3167895  31.0624910 108.5974470  57.1351897
  31.8716647 109.2184739  58.2538687  38.7390457  98.9374225  68.0209141
  38.7878613  99.8136348  67.6386911  39.2812972  98.3951618  67.4480785
  49.2245303 109.4815348  67.3010278  48.4340847 109.4639487  66.7614778
  48.9878658 110.0203642  68.0559315  49.3443178 106.3307815  64.6143007
  49.3941183 106.1657822  65.5558530  49.2357102 105.4635074  64.2240888
  38.2279437 109.0096360  51.9035096  38.3767557 109.6931825  51.2501769
  39.0345880 108.9901450  52.4184552  46.6346941 102.3138743  65.9302314
  47.5356803 102.1745208  65.6386312  46.7094915 102.4793198  66.8700491
  40.9689746  99.6905597  64.7755500  40.0993055  99.9839164  64.5038089
  41.2049226 100.2746042  65.4962764  50.8461375 108.7504756  64.8585029
  50.5546183 109.1134737  65.6948490  50.2333506 108.0371765  64.6798361
  52.0457057 106.3157636  57.3787599  52.8803949 106.7547440  57.5425159
  52.1816186 105.8396289  56.5595845  49.0948563 103.8737371  63.3265087
  49.5702685 104.0665017  62.5183938  48.1714129 103.9296557  63.0808470
  35.9832070 105.0361538  52.9096165  35.7378112 104.1323868  53.1076375
  36.1527984 105.0378688  51.9675643  43.6728780  95.9085214  62.2920920
  44.1910724  96.6446241  61.9667409  43.3183913  96.2149208  63.1267680
  35.2527717 100.7689896  50.4082326  34.5596962 100.8434251  49.7522362
  35.0079469 100.0050239  50.9303843  43.9241374  92.3285497  57.8121817
  44.2043128  91.6608686  58.4382244  44.7091981  92.5214593  57.2996481
  41.7274842 111.5044491  49.3746843  41.1548809 112.1234678  48.9217315
  42.3007636 112.0543853  49.9086765  47.7950232 100.7503131  61.5593392
  48.7467655 100.8501229  61.5805616  47.6253683  99.9581399  62.0691477
  45.8164612  97.8358714  61.7452793  45.2214544  98.1163727  61.0499282
  45.5314308  98.3252615  62.5169534  44.9472102 111.7881641  50.5055426
  45.8802775 111.7227203  50.7088301  44.8595315 112.6237908  50.0469958
  47.5760119 111.1047511  47.4659373  47.4973750 110.7707375  48.3595131
  48.3969786 111.5969279  47.4650846  50.2738310 103.9709251  60.6735692
  50.2414630 103.0325251  60.8595376  50.8838934 104.0493287  59.9401517
  42.1121641 102.8405304  46.7162896  43.0580746 102.7111512  46.7851314
  41.7335886 102.1019966  47.1932324  50.4232799 100.7620294  60.7193975
  49.9071847  99.9778751  60.5323904  51.3072747 100.4339011  60.8840494
  48.0843525  94.5061310  56.6789788  47.8868347  94.1976398  57.5633120
  48.6943231  95.2322949  56.8087718  56.0914860 105.0325257  59.8141729
  56.8218248 104.7710546  60.3749432  55.4821805 104.2953979  59.8543797
  54.1730157 103.1733120  60.4116180  53.4463321 103.0389085  59.8032671
  53.7577444 103.4809949  61.2172898  41.9960333 106.8923050  68.1763553
  42.9163343 107.0701649  68.3703599  41.9609916 105.9479095  68.0243252
  40.2964558 100.7655280  46.6517781  39.3896013 100.4688393  46.7280495
  40.5740539 100.4685098  45.7852067  31.2142498 102.0861643  57.1016827
  30.8945283 101.2326952  56.8091201  30.6675927 102.3010222  57.8574795
  34.9922406 104.8024084  60.8186334  35.2108416 105.7341192  60.8374368
  35.4048180 104.4432059  61.6041138  41.9126624  95.3092170  52.8062022
  41.1027352  94.9639255  53.1817268  42.6011041  94.9999713  53.3949634
  43.8417172  94.3870217  54.4286319  44.3948211  94.8065670  55.0876342
  44.0787258  93.4605965  54.4709275  39.8650271 100.3757290  70.2089083
  39.7646998 101.3251647  70.1401174  39.6471813 100.0475529  69.3365153
  39.0663343  97.6242215  46.7929760  39.9282507  97.9497114  47.0525578
  39.2513687  96.8373711  46.2802826  31.0830758 105.7064555  59.0709949
  30.3894230 105.2918508  58.5579903  31.8303749 105.7485091  58.4743368
  47.2195979  96.4970742  53.9364983  46.6394648  97.1555546  53.5543036
  46.9531912  95.6748086  53.5252401  45.6699546  95.8975799  56.1386304
  46.1699324  96.0092334  55.3300622  46.3135153  95.5936852  56.7787112
  39.7281541 103.8054429  69.0254145  39.2448623 104.6054789  69.2318034
  39.8142480 103.8162374  68.0721589  32.9967501 105.6382809  56.9475964
  32.9738189 105.7370496  55.9957847  33.3068137 106.4847959  57.2693130
  35.6554879 107.6958964  61.0622578  36.6098132 107.6642906  60.9952510
  35.4567402 107.2349587  61.8772804  36.2454261 106.2660080  63.6293376
  37.0647150 106.7604158  63.6528213  36.5191069 105.3492048  63.6010944
  46.0020857  98.6570832  52.9921332  45.1146712  98.9420483  52.7741526
  46.4174846  98.4964595  52.1448608  49.3535393  98.6817353  56.7075671
  50.1295783  99.1713805  56.9800288  48.6283527  99.1075407  57.1647540
  51.7907952  99.3944972  57.7649611  52.3852443  99.1540708  57.0542920
  51.8634536  98.6752103  58.3923148  45.1464071 108.4215507  47.0869351
  45.8499921 108.6265509  47.7027007  44.4226719 108.9892269  47.3518435
  45.9761881 104.1725368  53.2071622  45.9197082 104.6293919  52.3679254
  46.5290223 103.4116053  53.0294464  49.7866687  99.9615100  54.0321741
  49.5303621  99.5611736  54.8629949  49.1619555 100.6758894  53.9071880
  54.0979025 102.7011173  56.5393033  53.5378583 102.7704362  57.3124595
  53.4922528 102.5252158  55.8192529  47.0550768 108.8598036  49.1367812
  47.8896372 108.4279234  48.9545286  46.8935111 108.6880050  50.0644706
  46.7096660 105.3630149  50.5024151  46.6545464 105.1974421  49.5612595
  46.0842715 106.0706182  50.6586341  31.4989175 100.5998214  64.3285573
  32.1448039 100.0897168  64.8172798  31.2906326 101.3366895  64.9028998
  44.0242567 107.6679061  69.8277714  44.8933727 107.8419713  69.4664349
  43.5449319 108.4873478  69.7053443  40.0192786  94.8638258  50.0809469
  40.0071456  95.8080098  50.2377740  40.9116208  94.6808404  49.7868930
  43.8344905  91.4581035  54.3355406  43.0677301  90.9039522  54.4812088
  44.2455610  91.5302904  55.1969558  35.8386666  97.7465831  68.4260587
  36.7018128  97.3902636  68.6363912  35.2652077  97.4079726  69.1135992
  55.2376312 117.1019141  56.3076196  56.0239401 116.6838564  55.9566613
  55.5015016 118.0065233  56.4757845  60.6384739 117.0394374  57.2109175
  61.3709911 116.4693591  57.4447004  59.8824094 116.6515975  57.6515680
  58.1610159 110.7515948  61.6703783  57.8293484 111.6211359  61.4464998
  57.5655772 110.4352232  62.3497814  51.8966345 114.4911515  49.4033866
  52.0640748 115.3591752  49.7704337  51.7063515 114.6538797  48.4795155
  58.0538822 115.4711034  58.7497133  57.1455700 115.4026443  58.4555894
  58.0026418 115.9482979  59.5778959  59.9200469 113.6727473  60.5275007
  59.2774849 113.9660006  59.8814802  59.4155397 113.5580393  61.3328204
  57.5740632 117.4190646  51.2160867  58.4858489 117.6518033  51.0408564
  57.0650280 118.0027690  50.6535945  52.2112470 116.7787881  62.2255716
  53.0573665 117.2027294  62.3690365  52.1511108 116.1221505  62.9194279
  55.3611916 114.4392249  63.8836890  55.1172847 115.1934309  63.3471166
  55.6371846 114.8177597  64.7184137  54.9176607 113.5948682  59.4650728
  54.0561086 113.8929936  59.7567465  54.9439042 113.8119081  58.5331760
  66.5202199 120.2041565  57.0821484  65.7665908 119.6348963  56.9265489
  66.6549741 120.1704230  58.0292119  48.3968167 111.1546547  69.4190559
  48.0035113 110.6012746  70.0938203  49.2134307 111.4657126  69.8097076
  51.3136128 112.5704426  67.0110815  52.0545841 113.1711580  66.9315278
  51.5454051 111.8282064  66.4528858  55.2593291 108.5985529  61.2875097
  54.9157560 109.4887171  61.2114208  55.6272254 108.4087187  60.4244682
  52.8090685 113.4343841  54.8532771  51.9532281 113.0450692  54.6738409
  53.2217636 113.5135802  53.9932556  54.3389831 110.9690185  59.2524330
  53.8354627 110.9320320  58.4392136  54.6320438 111.8782927  59.3120987
  50.5832717 111.0528914  58.2590512  51.4485714 110.8571723  57.8996402
  50.6510226 110.8239266  59.1859869  55.0129877 116.4621233  51.6207313
  54.7080012 116.7767382  52.4717457  55.9660319 116.5402652  51.6634646
  48.1895036 113.2831122  55.6306879  48.7638788 113.0606304  54.8980072
  48.7766019 113.3519817  56.3835480  48.5164623 115.3135583  49.6502764
  47.6801936 115.6510270  49.9712039  48.3769393 115.1784563  48.7129901
  50.4917704 110.1572371  54.3581948  49.8382116 109.8421388  53.7338563
  50.4498178 109.5348112  55.0841771  53.7255444 116.6454305  58.6829596
  52.8078006 116.8669252  58.5251284  54.1415588 116.7200615  57.8241303
  56.9569329 115.0802837  55.7951065  56.2192086 114.5680223  56.1261308
  57.2096103 114.6403218  54.9834342  57.0580957 107.8579089  56.3892835
  57.3639833 106.9976452  56.1018750  57.7833561 108.4496709  56.1891829
  54.8668608 117.2351766  63.4874299  55.2217996 117.4623239  64.3468764
  55.5140739 117.5670143  62.8651554  48.7608471 114.3428297  60.2720640
  49.4007850 114.2017056  59.5743603  47.9286002 114.0562810  59.8959242
  53.1387585 112.3528320  64.2358112  52.4915500 113.0518270  64.1422588
  53.9088600 112.7864464  64.6034360  48.9800745 115.6994159  64.2874207
  48.4438102 115.2484898  64.9395804  48.3917453 115.8340068  63.5444672
  48.3903004 115.1582811  46.8500671  47.5132470 115.0371611  46.4862918
  48.8660757 114.3668889  46.5979560  54.8863580 113.3203730  56.7397397
  55.3832279 112.5673693  56.4198467  54.1150561 113.3568047  56.1740606
  62.7393337 119.0244096  58.3815688  62.7283213 119.9068811  58.0109621
  61.8710717 118.6715647  58.1870225  51.4698549 115.4621113  56.4669081
  51.0996336 114.9092154  57.1549987  51.9657641 114.8579247  55.9144081
  59.3565912 117.9192737  54.8485854  59.8226364 118.7520729  54.7746157
  59.8073412 117.4537719  55.5531113  57.3282575 110.2873324  58.8876756
  56.4145654 110.5177551  59.0558963  57.7575676 110.3711768  59.7390788
  57.0989033 118.4763216  61.3876650  56.4460483 118.7239123  60.7329102
  57.4769413 117.6627354  61.0539127  46.8663882 112.8725104  62.7122187
  46.9305209 113.7339935  62.2999585  46.8031002 112.2599106  61.9794546
  46.3416155 114.9448237  66.3595222  46.9688194 114.5625314  66.9732746
  45.4844074 114.7262439  66.7250914  49.4502258 112.1635089  64.5481777
  49.9736660 112.4097385  65.3108086  49.2314591 112.9955124  64.1284914
  44.8469539 114.4338764  52.4152902  44.5182245 113.5536142  52.2328008
  45.2008910 114.3786432  53.3029291  47.9611362 114.7211733  52.7828379
  48.3007435 115.2497655  52.0606988  48.4083483 115.0592139  53.5586946
  50.6554803 113.1048784  62.2331447  50.3151623 112.3056597  62.6352127
  49.9493809 113.4050495  61.6608281  51.3071275 110.1898096  60.6858770
  52.1297344 109.7158575  60.5637661  51.5509338 110.9688580  61.1857457
  49.9479509 113.2186355  50.9821672  50.6687872 113.5967608  50.4785389
  49.3244813 113.9375232  51.0856650  54.0910632 113.9231504  51.9180004
  54.3074247 114.8056142  51.6168833  53.6104699 113.5317717  51.1885646
  50.6906236 113.8719765  58.5431639  50.6767805 112.9760858  58.2063937
  51.4078665 113.8790429  59.1769925  52.5432367 114.3057105  60.5884766
  52.2850145 115.2274176  60.5869097  52.0117408 113.9087540  61.2785230
  50.0943132 112.7534145  53.8119209  50.2159044 111.8250792  54.0110096
  49.8045175 112.7672831  52.8997524  52.9634323 110.4389056  56.9485929
  52.9856020 110.5028389  55.9937908  53.3802382 109.5993564  57.1426435
  63.3417947 120.1744315  54.9865151  63.7849093 119.4251641  54.5884274
  62.4644457 120.1654452  54.6038883  49.5784212 114.2666143  68.0209141
  49.6272367 115.1428266  67.6386911  50.1206726 113.7243536  67.4480785
  57.4740695 117.6430660  65.9302314  58.3750558 117.5037125  65.6386312
  57.5488670 117.8085115  66.8700491  51.8083500 115.0197515  64.7755500
  50.9386810 115.3131081  64.5038089  52.0442981 115.6037960  65.4962764
  59.9342318 119.2029289  63.3265087  60.4096439 119.3956935  62.5183938
  59.0107883 119.2588474  63.0808470  54.5122534 111.2377132  62.2920920
  55.0304478 111.9738159  61.9667409  54.1577667 111.5441125  63.1267680
  54.7635128 107.6577415  57.8121817  55.0436882 106.9900604  58.4382244
  55.5485735 107.8506510  57.2996481  58.6343987 116.0795049  61.5593392
  59.5861410 116.1793146  61.5805616  58.4647437 115.2873317  62.0691477
  56.6558366 113.1650632  61.7452793  56.0608298 113.4455645  61.0499282
  56.3708063 113.6544533  62.5169534  61.1132065 119.3001168  60.6735692
  61.0808385 118.3617169  60.8595376  61.7232688 119.3785205  59.9401517
  61.2626553 116.0912212  60.7193975  60.7465602 115.3070668  60.5323904
  62.1466502 115.7630928  60.8840494  58.9237280 109.8353227  56.6789788
  58.7262101 109.5268315  57.5633120  59.5336986 110.5614866  56.8087718
  66.9308614 120.3617175  59.8141729  67.6612003 120.1002463  60.3749432
  66.3215560 119.6245897  59.8543797  65.0123912 118.5025038  60.4116180
  64.2857075 118.3681003  59.8032671  64.5971198 118.8101866  61.2172898
  51.1358313 116.0947198  46.6517781  50.2289768 115.7980310  46.7280495
  51.4134294 115.7977016  45.7852067  52.7520378 110.6384087  52.8062022
  51.9421107 110.2931172  53.1817268  53.4404795 110.3291631  53.3949634
  54.6810927 109.7162134  54.4286319  55.2341965 110.1357588  55.0876342
  54.9181013 108.7897882  54.4709275  50.7044026 115.7049208  70.2089083
  50.6040753 116.6543565  70.1401174  50.4865568 115.3767447  69.3365153
  49.9057097 112.9534133  46.7929760  50.7676261 113.2789031  47.0525578
  50.0907441 112.1665629  46.2802826  58.0589734 111.8262659  53.9364983
  57.4788403 112.4847463  53.5543036  57.7925666 111.0040004  53.5252401
  56.5093300 111.2267717  56.1386304  57.0093078 111.3384252  55.3300622
  57.1528908 110.9228770  56.7787112  56.8414612 113.9862750  52.9921332
  55.9540467 114.2712400  52.7741526  57.2568601 113.8256513  52.1448608
  60.1929148 114.0109271  56.7075671  60.9689538 114.5005723  56.9800288
  59.4677282 114.4367325  57.1647540  62.6301706 114.7236890  57.7649611
  63.2246197 114.4832626  57.0542920  62.7028290 114.0044020  58.3923148
  60.6260441 115.2907018  54.0321741  60.3697376 114.8903653  54.8629949
  60.0013309 116.0050811  53.9071880  64.9372779 118.0303091  56.5393033
  64.3772337 118.0996280  57.3124595  64.3316283 117.8544075  55.8192529
  50.8586540 110.1930176  50.0809469  50.8465210 111.1372016  50.2377740
  51.7509962 110.0100321  49.7868930  54.6738660 106.7872953  54.3355406
  53.9071055 106.2331439  54.4812088  55.0849365 106.8594821  55.1969558
  46.6780421 113.0757748  68.4260587  47.5411882 112.7194553  68.6363912
  46.1045831 112.7371643  69.1135992   1.4866272  19.7370221  45.9568295
   2.1244682  19.6176969  45.2531635   1.3687115  20.6851065  46.0156247
   1.0407540  17.4621675  43.0321503   1.8270630  17.0441098  42.6811920
   1.3046245  18.3667767  43.2003151   1.2117618  22.8994525  37.7310160
   0.5763451  22.9729152  38.4431064   0.8815024  23.4888124  37.0529239
   6.4415968  17.3996908  43.9354481   7.1741140  16.8296125  44.1692311
   5.6855323  17.0118509  44.3760987   3.8570051  15.8313569  45.4742440
   2.9486929  15.7628977  45.1801201   3.8057647  16.3085514  46.3024266
   5.7231698  14.0330007  47.2520314   5.0806078  14.3262540  46.6060109
   5.2186626  13.9182927  48.0573511   3.3771861  17.7793180  37.9406173
   4.2889717  18.0120567  37.7653871   2.8681508  18.3630224  37.3781252
   1.6612629  22.2017808  51.5767466   2.0695985  21.7600219  50.8322098
   0.9389890  21.6270436  51.8301659   1.9841444  22.7618999  45.3319755
   1.3550306  22.9264713  44.6295823   1.5967106  23.1760608  46.1030719
   5.8630676  23.6973436  42.6864119   5.1781714  24.0772338  42.1361152
   5.9474525  24.3068763  43.4196066   3.1181607  21.3433395  49.2859462
   3.3298502  21.9865155  48.6093843   3.0711355  20.5095712  48.8181392
   4.2327435  24.2205351  47.4581819   5.0544879  23.8185538  47.1764501
   4.2289838  24.1173585  48.4097935  12.3233428  20.5644099  43.8066791
  11.5697136  19.9951497  43.6510795  12.4580969  20.5306764  44.7537426
   1.4381771  26.3383868  51.6403254   1.4200246  27.1592749  51.1483523
   2.3601691  26.2137943  51.8653395   1.0274802  18.9496675  36.5192839
   0.5121426  19.7201279  36.7581226   0.7552111  18.2761811  37.1425900
   6.0009077  21.7029029  38.4546012   5.2238519  21.3640189  38.0101174
   6.6800558  21.7081653  37.7800977   4.2400383  21.1763011  45.1112620
   3.5824058  21.8662272  45.1992749   5.0440783  21.5659443  45.4546607
   3.0505842  19.5307383  43.1616562   3.5637724  20.1637375  43.6638272
   3.7007066  18.9308579  42.7959922   3.8167638  24.5113385  41.2895705
   3.3629966  23.6704295  41.3460895   3.1861605  25.1474783  41.6270485
   2.2600578  26.3489881  42.2245523   2.5523552  26.9094939  41.5057888
   2.7699198  26.6418442  42.9798682   0.6699837  17.5954300  50.2119605
   1.0249224  17.8225773  51.0714071   1.3171968  17.9272677  49.5896861
   6.3997574  20.7172736  40.9168934   6.2615472  20.9074332  39.9890123
   6.0433792  21.4792119  41.3736985   6.4266953  22.7849263  45.9280206
   6.8603460  22.6924552  46.7763260   7.1398534  22.7606763  45.2900222
   7.2882503  22.8272964  48.4613091   7.4818393  23.7318774  48.7072366
   7.1883121  22.3680383  49.2951676   2.3497612  22.9779706  54.0353972
   2.1983118  22.7490258  53.1184055   2.3402291  23.9350308  54.0485317
   2.4035686  21.2999921  34.4524673   1.7864857  20.5746749  34.3557726
   1.9352175  22.0609281  34.1091748   4.0589818  26.0098829  52.1130454
   4.0002364  25.3258049  51.4461037   4.4609337  26.7517819  51.6611080
   4.0607225  23.9738413  50.3444433   3.1734004  23.6364335  50.4670832
   4.6305776  23.2421444  50.5813199   8.5424566  19.3846630  45.1060995
   8.5314442  20.2671346  44.7354928   7.6741945  19.0318181  44.9115532
   1.7724589  22.4377952  41.0381127   0.8380868  22.5579414  40.8685831
   1.9501258  21.5350419  40.7741137   5.1597141  18.2795271  41.5731161
   5.6257593  19.1123263  41.4991464   5.6104641  17.8140253  42.2776419
   3.2273372  24.6239092  38.5717313   3.5033216  24.5095687  39.4811187
   2.3577870  24.2256577  38.5329486   2.9020262  18.8365750  48.1121956
   2.2491712  19.0841658  47.4574409   3.2800642  18.0229888  47.7784434
   2.5441492  25.7113746  54.6894264   3.0881396  26.3243704  54.1949219
   1.9628337  26.2693325  55.2061277   0.8299005  28.8334464  45.8209292
   0.7050144  28.0324204  45.3120237   1.4878096  29.3280658  45.3323262
   2.8933913  26.6343484  47.4488842   1.9464249  26.5148835  47.3767168
   3.2416687  25.7465982  47.5315103   3.5014469  27.2524759  44.7358067
   4.4261016  27.0467621  44.5982518   3.3329772  27.0041160  45.6447408
   3.2909785  27.7710427  40.0920158   3.4646662  27.2056849  39.3394011
   3.7838676  28.5711322  39.9099648   9.1449176  20.5346850  41.7110458
   9.5880322  19.7854175  41.3129581   8.2675686  20.5256986  41.3284190
   4.2784957  27.0877191  37.1917056   4.9735862  27.7083884  37.4104371
   4.6208107  26.2372542  37.4669434   6.1776380  24.5376897  38.7204387
   6.7027704  24.8764169  37.9953707   6.0898733  23.6023912  38.5367522
   5.8670286  25.1709800  54.0255585   5.0765830  25.1533939  53.4860085
   5.6303641  25.7098094  54.7804622   5.9868161  22.0202267  51.3388314
   6.0366166  21.8552274  52.2803836   5.8782085  21.1529526  50.9486194
   3.2771924  18.0033195  52.6547620   4.1781787  17.8639659  52.3631618
   3.3519898  18.1687649  53.5945798   7.4886358  24.4399208  51.5830335
   7.1971167  24.8029189  52.4193796   6.8758490  23.7266216  51.4043667
   8.6882041  22.0052088  44.1032905   9.5228932  22.4441892  44.2670466
   8.8241169  21.5290741  43.2841151   5.7373547  19.5631823  50.0510393
   6.2127668  19.7559469  49.2429245   4.8139112  19.6191009  49.8053777
   4.4375216  16.4397583  48.2838699   5.3892638  16.5395680  48.3050923
   4.2678666  15.6475851  48.7936783   1.5897085  27.4776093  37.2300732
   2.5227759  27.4121655  37.4333608   1.5020298  28.3132360  36.7715265
   4.2185102  26.7941963  34.1904680   4.1398734  26.4601827  35.0840438
   5.0394769  27.2863731  34.1896152   6.9163293  19.6603703  47.3980998
   6.8839613  18.7219703  47.5840682   7.5263917  19.7387739  46.6646823
   7.0657782  16.4514746  47.4439282   6.5496830  15.6673203  47.2569210
   7.9497730  16.1233463  47.6085801  12.7339843  20.7219709  46.5387035
  13.4643232  20.4604997  47.0994739  12.1246789  19.9848431  46.5789103
  10.8155140  18.8627572  47.1361486  10.0888304  18.7283537  46.5277978
  10.4002427  19.1704401  47.9418204   5.9960377  14.3711805  43.4320977
   6.7720767  14.8608257  43.7045594   5.2708511  14.7969859  43.8892847
   8.4332935  15.0839424  44.4894918   9.0277426  14.8435160  43.7788226
   8.5059519  14.3646555  45.1168454   1.7889054  24.1109959  33.8114658
   2.4924904  24.3159961  34.4272314   1.0651703  24.6786721  34.0763742
   2.6186864  19.8619820  39.9316928   2.5622066  20.3188371  39.0924561
   3.1715207  19.1010504  39.7539771   6.4291670  15.6509552  40.7567048
   6.1728604  15.2506187  41.5875256   5.8044538  16.3653346  40.6317187
  10.7404008  18.3905625  43.2638339  10.1803566  18.4598814  44.0369901
  10.1347511  18.2146610  42.5437835   3.6975751  24.5492488  35.8613118
   4.5321355  24.1173686  35.6790593   3.5360094  24.3774502  36.7890013
   3.3521644  21.0524601  37.2269458   3.2970447  20.8868873  36.2857902
   2.7267699  21.7600634  37.3831647  12.3260026  35.0662139  45.9568295
  12.9638436  34.9468886  45.2531635  12.2080869  36.0142983  46.0156247
   9.1349733  35.0189567  45.8929820   8.7968244  34.9030632  45.0050354
  10.0039501  34.6180732  45.8730826   4.9936548  36.8725043  41.8826711
   4.4301414  36.7814980  41.1142998   4.8788943  36.0524948  42.3629203
   9.6169516  36.1724419  51.8516025   9.6058156  35.7777217  50.9796529
   9.7790155  35.4390491  52.4449797   2.5400980  38.3676235  44.7210931
   3.3322272  38.0267060  44.3057230   2.7797631  38.4771210  45.6413084
  10.5736107  40.5396011  37.1941175   9.9224087  41.1250092  36.8075189
  11.3680470  41.0702206  37.2536213   4.4991734  37.6285148  37.5928310
   5.2722610  37.0814135  37.4541186   4.8517133  38.4929398  37.8042771
   6.3376777  38.9561531  50.7995209   6.0466643  39.8607161  50.6841875
   6.9733761  38.9978058  51.5139279   7.2632984  36.3338379  47.3896569
   7.8596556  36.1094401  46.6753532   7.3207955  35.5923125  47.9922017
   6.8358012  33.7877814  35.2246760   7.0883533  33.2659336  34.4630223
   5.8982571  33.6243960  35.3273443  11.8801295  32.7913593  43.0321503
  12.6664384  32.3733016  42.6811920  12.1439999  33.6959685  43.2003151
  12.0511372  38.2286443  37.7310160  11.4157205  38.3021070  38.4431064
  11.7208779  38.8180042  37.0529239  17.2809722  32.7288826  43.9354481
  18.0134894  32.1588043  44.1692311  16.5249078  32.3410426  44.3760987
   6.5554301  35.6905920  37.4271135   6.4390559  35.0150824  38.0952219
   6.6656561  35.2038294  36.6103288   8.8985842  35.1516067  41.1317824
   8.5344049  34.6246688  41.8430745   9.7552958  34.7614537  40.9584309
  14.8035142  26.4410400  48.3949090  14.4718467  27.3105811  48.1710305
  14.2080756  26.1246684  49.0743120   8.5391329  30.1805967  36.1279172
   8.7065731  31.0486204  36.4949644   8.3488498  30.3433249  35.2040462
  11.2966662  38.6422946  47.7945003  10.9967385  39.5447985  47.6860810
  10.9517721  38.3755129  48.6466156   4.7479143  35.0936743  43.8281707
   3.8229640  34.9612957  44.0359399   4.9963557  35.8730962  44.3251650
  14.6963806  31.1605486  45.4742440  13.7880683  31.0920895  45.1801201
  14.6451402  31.6377431  46.3024266   8.5180550  32.6363625  37.1125839
   8.3980175  33.0820675  37.9511320   7.8233138  32.9848942  36.5539377
   2.1087954  34.7370016  44.6625496   2.2380336  34.9904495  45.5764908
   1.4285406  35.3297724  44.3430151   6.2787442  45.4067266  40.7615971
   6.2011471  46.3575092  40.8404451   5.6749085  45.0613139  41.4190897
   8.7704671  32.5795132  53.4177337   7.9938006  33.1389052  53.4080202
   9.4095235  33.0651915  53.9392208  16.5625452  29.3621925  47.2520314
  15.9199832  29.6554458  46.6060109  16.0580381  29.2474845  48.0573511
  14.2165616  33.1085098  37.9406173  15.1283472  33.3412485  37.7653871
  13.7075263  33.6922142  37.3781252   7.0251044  35.3880585  52.9795304
   7.7665728  35.9265629  52.7030128   6.3188029  36.0146874  53.1366856
  12.5006383  37.5309726  51.5767466  12.9089739  37.0892136  50.8322098
  11.7783645  36.9562353  51.8301659   8.8537453  32.4682332  48.9501023
   9.6998649  32.8921746  49.0935672   8.7936091  31.8115957  49.6439586
  12.8235198  38.0910916  45.3319755  12.1944061  38.2556630  44.6295823
  12.4360860  38.5052526  46.1030719  16.7024430  39.0265354  42.6864119
  16.0175468  39.4064256  42.1361152  16.7868279  39.6360681  43.4196066
  12.0036899  30.1286701  50.6082196  11.7597831  30.8828761  50.0716472
  12.2796829  30.5072048  51.4429444  13.9575362  36.6725313  49.2859462
  14.1692257  37.3157073  48.6093843  13.9105110  35.8387630  48.8181392
  11.5601591  29.2843134  46.1896034  10.6986070  29.5824387  46.4812772
  11.5864025  29.5013533  45.2577067   8.3763160  37.8285324  42.5969840
   8.8401506  38.1073027  41.8074462   8.1119958  36.9268769  42.4142931
   5.2687241  37.3756806  45.5349603   5.8388598  37.8044074  44.8967088
   5.8595353  37.0939391  46.2333789   7.3132046  33.9508477  39.4059405
   8.0156089  34.4029520  39.8733331   6.9812675  33.3092296  40.0339298
   5.7612408  32.5420233  53.7810614   5.1311068  33.2236514  54.0146011
   5.6548495  32.4303315  52.8363753  15.0721190  39.5497269  47.4581819
  15.8938633  39.1477456  47.1764501  15.0683592  39.4465503  48.4097935
   3.0072125  32.5736609  41.6660015   2.2103289  32.6855303  42.1843511
   2.7797718  32.9123261  40.8000906   8.8377793  39.0981312  49.6142530
   8.9022226  39.5601719  50.4500702   8.1288717  38.4678677  49.7424840
  23.1627183  35.8936017  43.8066791  22.4090891  35.3243415  43.6510795
  23.2974724  35.8598682  44.7537426   8.5525811  40.7649419  39.4821510
   8.4171485  41.6100955  39.9106358   9.0935623  40.9668697  38.7187444
   5.0393150  26.8440999  56.1435865   4.6460096  26.2907198  56.8183510
   5.8559291  27.1551578  56.5342383   2.0055208  38.2824857  40.0549435
   2.5179729  39.0768108  40.2055000   2.6577921  37.5851148  39.9883037
   3.8150093  41.3990614  42.1372189   3.9916721  42.3208578  41.9493172
   4.6106926  41.0849033  42.5666568   7.9561111  28.2598878  53.7356122
   8.6970825  28.8606031  53.6560585   8.1879034  27.5176516  53.1774165
   3.1002449  33.4455246  52.0134352   2.9855964  32.5440503  52.3141451
   2.2446967  33.6918942  51.6619168  10.1794287  41.3872986  53.6121852
   9.7358141  40.6009364  53.2942757  10.8411501  41.5752136  52.9465743
   4.9381408  42.9168787  48.1382531   5.4888833  42.7885851  47.3659525
   4.0992884  43.2163677  47.7877424  12.2775525  41.6675786  51.6403254
  12.2594000  42.4884667  51.1483523  13.1995445  41.5429861  51.8653395
   8.7348579  39.1819915  52.4826762   9.2676916  38.4208203  52.2526070
   8.2062660  38.8893567  53.2250916  11.9018274  24.2879981  48.0120404
  11.5582544  25.1781623  47.9359514  12.2697237  24.0981639  47.1489989
  11.8668557  34.2788592  36.5192839  11.3515180  35.0493197  36.7581226
  11.5945865  33.6053729  37.1425900   9.4515668  29.1238293  41.5778077
   8.5957264  28.7345144  41.3983716   9.8642620  29.2030254  40.7177863
  10.9814815  26.6584636  45.9769637  10.4779610  26.6214772  45.1637442
  11.2745421  27.5677379  46.0366294   7.2257700  26.7423366  44.9835819
   8.0910697  26.5466175  44.6241708   7.2935209  26.5133718  45.9105175
  16.8402831  37.0320947  38.4546012  16.0632274  36.6932107  38.0101174
  17.5194312  37.0373570  37.7800977  11.6554860  32.1515684  38.3452620
  11.3504996  32.4661834  39.1962763  12.6085302  32.2297104  38.3879953
  10.1001292  38.3105908  39.9945574   9.5722654  37.5758667  39.6818811
   9.5988795  39.0880584  39.7485542  15.0794138  36.5054928  45.1112620
  14.4217812  37.1954190  45.1992749  15.8834537  36.8951360  45.4546607
   4.8320020  28.9725574  42.3552186   5.4063771  28.7500756  41.6225378
   5.4191002  29.0414269  43.1080787  13.8899597  34.8599301  43.1616562
  14.4031479  35.4929293  43.6638272  14.5400821  34.2600496  42.7959922
   5.1589607  31.0030035  36.3748071   4.3226919  31.3404722  36.6957346
   5.0194376  30.8679015  35.4375208   7.1342687  25.8466823  41.0827255
   6.4807100  25.5315840  40.4583870   7.0923161  25.2242563  41.8087078
   8.2453892  36.1286118  32.9980547   7.3380954  35.8975371  33.1971696
   8.7424924  35.3323737  33.1854529  11.1521971  44.8383625  35.9177233
  10.4783670  45.1415322  36.5262191  11.5387793  45.6412706  35.5682690
  10.3680428  32.3348757  45.4074903   9.4502989  32.5563704  45.2496591
  10.7840571  32.4095067  44.5486610  11.1515475  33.7340172  40.5377583
  11.8987294  34.2461569  40.2284705  11.4207065  33.4124225  41.3981976
   9.4242126  36.2298713  37.5204537   8.5153345  35.9457746  37.6177007
   9.4537209  36.6497791  36.6607844  14.6561393  39.8405302  41.2895705
  14.2023720  38.9996212  41.3460895  14.0255360  40.4766701  41.6270485
  13.5994313  30.7697288  42.5196372  12.8617069  30.2574675  42.8506615
  13.8521086  30.3297670  41.7079649  13.0994332  41.6781799  42.2245523
  13.3917307  42.2386856  41.5057888  13.6092953  41.9710360  42.9798682
  13.7005940  23.5473540  43.1138141  14.0064817  22.6870904  42.8264056
  14.4258545  24.1391161  42.9137135   7.9727020  33.8427334  43.6214332
   8.0275629  32.8901170  43.5456809   7.1618222  33.9986773  44.1055631
   9.1218213  37.7707457  34.8592616   8.6837643  37.0543316  34.3998253
   9.8628654  37.9983571  34.2977707   5.9119380  32.4604393  41.3804711
   5.0987245  32.7598564  41.7869903   6.4078374  32.0660082  42.0979194
   8.0627957  42.4562150  43.3138976   8.0204136  42.6822996  42.3847508
   8.9790656  42.2225525  43.4624777  11.5093591  32.9246218  50.2119605
  11.8642979  33.1517691  51.0714071  12.1565722  33.2564595  49.5896861
  17.2391328  36.0464654  40.9168934  17.1009227  36.2366250  39.9890123
  16.8827547  36.8084036  41.3736985   5.4033454  30.0322749  46.9965946
   6.0432834  29.8911508  46.2988910   4.5710985  29.7457262  46.6204548
  17.2660708  38.1141181  45.9280206  17.6997214  38.0216470  46.7763260
  17.9792288  38.0898681  45.2900222   6.1793758  39.3325179  43.1100939
   6.9734357  38.8375499  42.9083514   5.4685451  38.8043042  42.7468644
  10.9988603  41.7143275  47.4613306  11.0525625  42.2834211  48.2291022
  10.1303384  41.8845160  47.0967343   2.4876522  33.4768261  39.1860691
   1.5574110  33.4152716  39.4030654   2.5833994  32.9544214  38.3897333
   2.4062071  30.0023074  41.7738933   2.6668888  30.9168407  41.6648094
   3.2279243  29.5347516  41.9235546   3.8786996  31.4160831  48.9437758
   4.5510049  31.2078193  48.2950407   3.0516783  31.2182917  48.5042990
  18.1276257  38.1564881  48.4613091  18.3212147  39.0610692  48.7072366
  18.0276875  37.6972300  49.2951676   9.7812568  28.0422772  50.9603418
   9.1340483  28.7412722  50.8667895  10.5513583  28.4758916  51.3279667
  13.1891366  38.3071624  54.0353972  13.0376872  38.0782176  53.1184055
  13.1796045  39.2642225  54.0485317   9.9576702  35.8803537  49.0200238
  10.8868762  36.0314696  48.8469206   9.5367732  35.9687558  48.1648885
   8.7565034  39.9054201  46.7898776   8.6176120  39.5372986  47.6624714
   7.9679630  40.4201841  46.6182734   9.3513186  45.0063298  38.1324312
   9.5264942  44.5351341  38.9469935   8.6645974  45.6329064  38.3605573
  10.3070249  39.2835804  44.1787614   9.9720082  39.2436574  45.0745264
   9.8074195  38.6180520  43.7058024   4.2814493  34.6903434  49.7040195
   4.1434291  33.9583673  50.3051734   5.1919417  34.6012334  49.4224383
  13.2429441  36.6291838  34.4524673  12.6258612  35.9038666  34.3557726
  12.7745929  37.3901199  34.1091748   6.9096794  34.4023393  49.1923874
   7.6196412  33.7616585  49.1510493   6.8666102  34.6536288  50.1150055
  14.8983573  41.3390747  52.1130454  14.8396119  40.6549967  51.4461037
  15.3003091  42.0809737  51.6611080   5.6225728  31.3888611  51.0119514
   5.0863085  30.9379350  51.6641110   5.0342436  31.5234520  50.2689978
   3.9174271  48.1552660  44.9064173   4.1570870  48.7871185  45.5843191
   3.0743468  47.8040700  45.1929532   5.0327987  30.8477263  33.5745978
   4.1557453  30.7266063  33.2108224   5.5085740  30.0563341  33.3224866
  14.9000980  39.3030331  50.3444433  14.0127759  38.9656252  50.4670832
  15.4699531  38.5713362  50.5813199   1.3564849  30.5244619  48.0972508
   1.2723038  29.9170288  47.3622918   0.5347556  31.0153637  48.0982005
   8.4302133  43.9631783  47.3105677   8.3572305  44.7686754  47.8224981
   7.9879526  44.1623749  46.4853698   8.2191913  43.2003553  40.8208498
   7.4359435  43.7425233  40.9146723   8.9184658  43.7177533  41.2202739
  11.5288563  29.0098182  43.4642703  12.0257263  28.2568145  43.1443774
  10.7575545  29.0462499  42.8985913  19.3818320  34.7138548  45.1060995
  19.3708197  35.5963263  44.7354928  18.5135700  34.3610099  44.9115532
  10.8900817  43.8618617  49.4663835  11.6028789  44.4966082  49.3939737
  10.3990845  43.9582483  48.6503837  12.6118344  37.7669870  41.0381127
  11.6774622  37.8871332  40.8685831  12.7895012  36.8642336  40.7741137
   8.1123532  31.1515565  43.1914388   7.7421319  30.5986606  43.8795294
   8.6082624  30.5473699  42.6389388  15.9990895  33.6087189  41.5731161
  16.4651347  34.4415180  41.4991464  16.4498396  33.1432170  42.2776419
   5.9412730  41.6113060  50.2869406   6.6422190  42.2449543  50.4398800
   5.4707845  41.9527792  49.5265045  14.0667126  39.9531010  38.5717313
  14.3426970  39.8387605  39.4811187  13.1971625  39.5548495  38.5329486
  13.9707558  25.9767776  45.6122062  13.0570638  26.2072003  45.7804269
  14.4000659  26.0606220  46.4636095  13.7414016  34.1657668  48.1121956
  13.0885467  34.4133575  47.4574409  14.1194396  33.3521806  47.7784434
  10.7021190  44.2017361  42.2150127  10.8843585  43.3839017  42.6777879
  11.5254176  44.4185053  41.7775017  11.0363356  43.1285546  39.4765175
  11.5651122  42.6178001  38.8635337  11.2991575  42.8128076  40.3410708
   9.7901589  34.9077479  54.5987993   9.1142226  34.8071608  55.2690369
  10.6129223  34.7516693  55.0623991   1.5380448  41.1449415  47.2200509
   2.1233885  40.3993103  47.3528413   1.3405287  41.4553372  48.1037173
   4.3919104  44.1800663  42.2362951   3.7229479  44.6646790  41.7526991
   4.2531973  44.4269883  43.1506330   8.5324372  46.2144406  48.8345609
   9.0842680  46.3776028  49.5994695   8.8730566  46.8048844  48.1625634
   3.5088865  28.5619556  49.4367494   3.5730192  29.4234387  49.0244892
   3.4455986  27.9493558  48.7039853   2.9841138  30.6342689  53.0840528
   3.6113177  30.2519766  53.6978053   2.1269057  30.4156891  53.4496221
  13.3835247  41.0405664  54.6894264  13.9275151  41.6535622  54.1949219
  12.8022091  41.5985242  55.2061277  11.6692760  44.1626382  45.8209292
  11.5443899  43.3616122  45.3120237  12.3271851  44.6572575  45.3323262
   3.2900928  30.5175114  44.9986432   2.5687513  31.1311082  44.8593905
   4.0794184  31.0532879  44.9203078  13.7327668  41.9635402  47.4488842
  12.7858003  41.8440753  47.3767168  14.0810441  41.0757900  47.5315103
   6.0927241  27.8529541  51.2727084   6.6161643  28.0991837  52.0353393
   5.8739575  28.6849576  50.8530221   1.4894522  30.1233215  39.1398208
   1.1607228  29.2430594  38.9573314   1.8433893  30.0680884  40.0274598
  10.7374101  41.7588118  43.6493194  10.5899064  40.8304826  43.8300764
  11.5627595  41.7808209  43.1650269   4.6036345  30.4106185  39.5073686
   4.9432418  30.9392106  38.7852294   5.0508466  30.7486591  40.2832253
  14.3408223  42.5816677  44.7358067  15.2654771  42.3759538  44.5982518
  14.1723526  42.3333078  45.6447408   7.2979786  28.7943236  48.9576754
   6.9576607  27.9951049  49.3597434   6.5918793  29.0944947  48.3853587
   7.9496258  25.8792548  47.4104077   8.7722327  25.4053027  47.2882967
   8.1934322  26.6583032  47.9102763   6.5904493  28.9080807  37.7066979
   7.3112855  29.2862060  37.2030696   5.9669797  29.6269684  37.8101957
  10.7335616  29.6125956  38.6425311  10.9499230  30.4950594  38.3414139
  10.2529683  29.2212169  37.9130953   5.4734837  32.5711669  45.2196056
   5.3279418  32.8851972  46.1120337   4.9960041  33.1896569  44.6666954
   7.3331220  29.5614217  45.2676945   7.3192789  28.6655310  44.9309243
   8.0503648  29.5684881  45.9015231   9.1857350  29.9951557  47.3130073
   8.9275128  30.9168628  47.3114403   8.6542391  29.5981992  48.0030537
  14.1303539  43.1002344  40.0920158  14.3040417  42.5348767  39.3394011
  14.6232430  43.9003239  39.9099648   6.7368116  28.4428597  40.5364515
   6.8584027  27.5145243  40.7355403   6.4470158  28.4567283  39.6242831
   9.6059306  26.1283508  43.6731235   9.6281003  26.1922841  42.7183215
  10.0227365  25.2888016  43.8671741  19.9842930  35.8638767  41.7110458
  20.4274076  35.1146092  41.3129581  19.1069441  35.8548904  41.3284190
  15.1178712  42.4169109  37.1917056  15.8129616  43.0375801  37.4104371
  15.4601862  41.5664460  37.4669434  17.0170135  39.8668814  38.7204387
  17.5421459  40.2056087  37.9953707  16.9292487  38.9315830  38.5367522
   8.6790184  43.7802888  50.8494264   8.9877310  43.5352035  51.7216963
   9.4765666  43.9849526  50.3613134   8.7010796  45.9340798  43.0799640
   8.2615786  45.4417176  43.7732497   9.4518913  45.3913765  42.8391716
   1.1803135  42.1252338  43.0824268   2.0061154  41.8256110  42.7022912
   0.8297187  41.3559961  43.5314057   6.1484668  41.4778807  45.1521942
   5.5264677  40.8149512  44.8524170   6.8189535  41.5039939  44.4695590
   6.2209195  29.9560595  54.7454448   6.2697351  30.8322717  54.3632218
   6.7631709  29.4137988  54.1726091  16.7064041  40.5001718  54.0255585
  15.9159585  40.4825857  53.4860085  16.4697395  41.0390012  54.7804622
  16.8261916  37.3494184  51.3388314  16.8759921  37.1844192  52.2803836
  16.7175839  36.4821443  50.9486194   5.7098175  40.0282730  38.6280403
   5.8586295  40.7118194  37.9747075   6.5164618  40.0087820  39.1429858
  14.1165678  33.3325112  52.6547620  15.0175541  33.1931577  52.3631618
  14.1913653  33.4979567  53.5945798   8.4508484  30.7091967  51.5000807
   7.5811793  31.0025533  51.2283395   8.6867964  31.2932412  52.2208070
  18.3280113  39.7691126  51.5830335  18.0364921  40.1321106  52.4193796
  17.7152244  39.0558134  51.4043667  19.5275795  37.3344006  44.1032905
  20.3622687  37.7733810  44.2670466  19.6634924  36.8582659  43.2841151
  16.5767301  34.8923740  50.0510393  17.0521423  35.0851387  49.2429245
  15.6532866  34.9482926  49.8053777   3.4650808  36.0547908  39.6341471
   3.2196850  35.1510238  39.8321682   3.6346722  36.0565058  38.6920949
  11.1547518  26.9271584  49.0166227  11.6729461  27.6632611  48.6912716
  10.8002650  27.2335577  49.8512986   2.7346455  31.7876265  37.1327633
   2.0415700  31.8620620  36.4767669   2.4898207  31.0236609  37.6549150
  11.4060112  23.3471867  44.5367124  11.6861865  22.6795056  45.1627550
  12.1910719  23.5400962  44.0241788   9.2093580  42.5230860  36.0992150
   8.6367547  43.1421048  35.6462622   9.7826374  43.0730222  36.6332072
  15.2768970  31.7689501  48.2838699  16.2286393  31.8687598  48.3050923
  15.1072420  30.9767769  48.7936783  13.2983350  28.8545084  48.4698100
  12.7033282  29.1350096  47.7744588  13.0133046  29.3438985  49.2414841
  12.4290840  42.8068011  37.2300732  13.3621513  42.7413572  37.4333608
  12.3414053  43.6424277  36.7715265  15.0578857  42.1233881  34.1904680
  14.9792488  41.7893744  35.0840438  15.8788523  42.6155649  34.1896152
  17.7557048  34.9895620  47.3980998  17.7233368  34.0511621  47.5840682
  18.3657671  35.0679657  46.6646823   9.5940379  33.8591673  33.4408202
  10.5399483  33.7297881  33.5096621   9.2154624  33.1206335  33.9177631
  17.9051536  31.7806664  47.4439282  17.3890585  30.9965120  47.2569210
  18.7891485  31.4525380  47.6085801  15.5662263  25.5247679  43.4035094
  15.3687084  25.2162767  44.2878426  16.1761969  26.2509318  43.5333024
  23.5733598  36.0511627  46.5387035  24.3036986  35.7896915  47.0994739
  22.9640543  35.3140349  46.5789103  21.6548895  34.1919490  47.1361486
  20.9282058  34.0575455  46.5277978  21.2396182  34.4996318  47.9418204
   9.4779071  37.9109419  54.9008859  10.3982081  38.0888018  55.0948906
   9.4428654  36.9665465  54.7488559   7.7783296  31.7841650  33.3763088
   6.8714751  31.4874762  33.4525801   8.0559277  31.4871468  32.5097374
   2.4741144  35.8210454  47.5431641   2.6927154  36.7527562  47.5619674
   2.8866918  35.4618428  48.3286444   9.3945362  26.3278539  39.5307329
   8.5846090  25.9825624  39.9062575  10.0829778  26.0186083  40.1194941
  11.3235910  25.4056586  41.1531626  11.8766948  25.8252040  41.8121649
  11.5605996  24.4792334  41.1954582   7.3469009  31.3943660  56.9334390
   7.2465736  32.3438017  56.8646481   7.1290551  31.0661899  56.0610460
   6.5482080  28.6428585  33.5175067   7.4101244  28.9683483  33.7770884
   6.7332425  27.8560081  33.0048133  14.7014717  27.5157111  40.6610290
  14.1213386  28.1741915  40.2788342  14.4350650  26.6934456  40.2497707
  13.1518283  26.9162169  42.8631610  13.6518062  27.0278703  42.0545929
  13.7953891  26.6123222  43.5032419   7.2100279  34.8240799  55.7499451
   6.7267361  35.6241159  55.9563340   7.2961218  34.8348743  54.7966895
   0.4786239  36.6569178  43.6721271   0.4556927  36.7556866  42.7203154
   0.7886875  37.5034329  43.9938437   3.1373617  38.7145333  47.7867885
   4.0916870  38.6829276  47.7197817   2.9386140  38.2535957  48.6018111
   3.7272999  37.2846449  50.3538683   4.5465888  37.7790528  50.3773520
   4.0009806  36.3678417  50.3256250  13.4839595  29.6757202  39.7166638
  12.5965450  29.9606852  39.4986833  13.8993584  29.5150965  38.8693915
  16.8354131  29.7003723  43.4320977  17.6114521  30.1900175  43.7045594
  16.1102265  30.1261777  43.8892847  19.2726690  30.4131342  44.4894918
  19.8671181  30.1727078  43.7788226  19.3453273  29.6938472  45.1168454
   1.4923845  44.2564953  44.8038083   1.3578313  43.4965354  44.2376081
   1.0755908  44.9805853  44.3366872  12.6282808  39.4401876  33.8114658
  13.3318659  39.6451879  34.4272314  11.9045457  40.0078638  34.0763742
  13.4580619  35.1911738  39.9316928  13.4015820  35.6480289  39.0924561
  14.0108961  34.4302422  39.7539771  17.2685425  30.9801469  40.7567048
  17.0122359  30.5798105  41.5875256  16.6438293  31.6945263  40.6317187
  21.5797762  33.7197543  43.2638339  21.0197320  33.7890732  44.0369901
  20.9741266  33.5438527  42.5437835   4.6492971  45.1534270  45.0156526
   4.5325355  46.0979702  44.9135216   3.8285418  44.8507831  45.4042325
  14.5369506  39.8784405  35.8613118  15.3715110  39.4465604  35.6790593
  14.3753849  39.7066419  36.7890013  14.1915398  36.3816519  37.2269458
  14.1364202  36.2160790  36.2857902  13.5661453  37.0892552  37.3831647
  11.5061305  38.6865431  56.5523020  12.3752465  38.8606083  56.1909655
  11.0268057  39.5059847  56.4298750   7.5011523  25.8824628  36.8054776
   7.4890193  26.8266468  36.9623047   8.3934945  25.6994773  36.5114237
   5.6747485  45.8062532  48.2312454   6.5774732  45.8386142  48.5478949
   5.4484855  44.8762983  48.2458790   7.4301087  44.5593518  44.8922533
   6.4796718  44.5595380  44.7786905   7.7333574  43.8126253  44.3758567
  11.3163643  22.4767404  41.0600713  10.5496039  21.9225891  41.2057395
  11.7274348  22.5489273  41.9214864   3.3205404  28.7652200  55.1505894
   4.1836866  28.4089005  55.3609219   2.7470815  28.4266095  55.8381298
  23.1653781  50.3954057  45.9568295  23.8032191  50.2760804  45.2531635
  23.0474624  51.3434901  46.0156247  19.9743487  50.3481485  45.8929820
  19.6361999  50.2322549  45.0050354  20.8433255  49.9472650  45.8730826
  15.8330303  52.2016961  41.8826711  15.2695168  52.1106898  41.1142998
  15.7182698  51.3816866  42.3629203  20.4563270  51.5016336  51.8516025
  20.4451911  51.1069135  50.9796529  20.6183910  50.7682409  52.4449797
  13.3794735  53.6968153  44.7210931  14.1716027  53.3558977  44.3057230
  13.6191385  53.8063128  45.6413084  21.4129862  55.8687929  37.1941175
  20.7617841  56.4542009  36.8075189  22.2074224  56.3994124  37.2536213
  15.3385489  52.9577066  37.5928310  16.1116365  52.4106053  37.4541186
  15.6910888  53.8221315  37.8042771  17.1770531  54.2853448  50.7995209
  16.8860397  55.1899079  50.6841875  17.8127516  54.3269976  51.5139279
  18.1026738  51.6630297  47.3896569  18.6990310  51.4386319  46.6753532
  18.1601710  50.9215042  47.9922017  17.6751767  49.1169732  35.2246760
  17.9277287  48.5951253  34.4630223  16.7376326  48.9535878  35.3273443
  22.7195049  48.1205510  43.0321503  23.5058139  47.7024934  42.6811920
  22.9833754  49.0251603  43.2003151  22.8905127  53.5578361  37.7310160
  22.2550960  53.6312987  38.4431064  22.5602533  54.1471960  37.0529239
  17.3948055  51.0197838  37.4271135  17.2784313  50.3442741  38.0952219
  17.5050315  50.5330212  36.6103288  19.7379596  50.4807985  41.1317824
  19.3737803  49.9538606  41.8430745  20.5946712  50.0906454  40.9584309
  25.6428897  41.7702318  48.3949090  25.3112222  42.6397729  48.1710305
  25.0474510  41.4538602  49.0743120  19.3785083  45.5097885  36.1279172
  19.5459486  46.3778121  36.4949644  19.1882252  45.6725167  35.2040462
  22.1360416  53.9714864  47.7945003  21.8361140  54.8739903  47.6860810
  21.7911476  53.7047047  48.6466156  15.5872898  50.4228661  43.8281707
  14.6623394  50.2904875  44.0359399  15.8357311  51.2022880  44.3251650
  25.5357560  46.4897404  45.4742440  24.6274438  46.4212812  45.1801201
  25.4845156  46.9669349  46.3024266  19.3574304  47.9655542  37.1125839
  19.2373929  48.4112593  37.9511320  18.6626892  48.3140860  36.5539377
  12.9481709  50.0661934  44.6625496  13.0774090  50.3196413  45.5764908
  12.2679160  50.6589642  44.3430151  17.1181196  60.7359184  40.7615971
  17.0405226  61.6867009  40.8404451  16.5142840  60.3905057  41.4190897
  19.6098426  47.9087050  53.4177337  18.8331760  48.4680970  53.4080202
  20.2488989  48.3943833  53.9392208  27.4019207  44.6913842  47.2520314
  26.7593587  44.9846375  46.6060109  26.8974135  44.5766763  48.0573511
  25.0559370  48.4377016  37.9406173  25.9677226  48.6704402  37.7653871
  24.5469017  49.0214060  37.3781252  17.8644798  50.7172503  52.9795304
  18.6059483  51.2557547  52.7030128  17.1581784  51.3438792  53.1366856
  19.6931208  47.7974250  48.9501023  20.5392403  48.2213664  49.0935672
  19.6329846  47.1407874  49.6439586  23.6628953  53.4202834  45.3319755
  23.0337815  53.5848548  44.6295823  23.2754615  53.8344444  46.1030719
  27.5418184  54.3557272  42.6864119  26.8569223  54.7356173  42.1361152
  27.6262034  54.9652598  43.4196066  22.8430653  45.4578618  50.6082196
  22.5991585  46.2120679  50.0716472  23.1190584  45.8363966  51.4429444
  22.3995345  44.6135051  46.1896034  21.5379824  44.9116305  46.4812772
  22.4257780  44.8305450  45.2577067  19.2156914  53.1577242  42.5969840
  19.6795260  53.4364945  41.8074462  18.9513713  52.2560687  42.4142931
  16.1080996  52.7048724  45.5349603  16.6782353  53.1335992  44.8967088
  16.6989107  52.4231308  46.2333789  18.1525801  49.2800394  39.4059405
  18.8549844  49.7321438  39.8733331  17.8206429  48.6384213  40.0339298
  16.6006162  47.8712151  53.7810614  15.9704823  48.5528432  54.0146011
  16.4942250  47.7595233  52.8363753  11.8951134  47.5383947  44.7076539
  11.1050188  47.7941476  44.2316649  12.3862382  48.3532285  44.8128579
  13.8465880  47.9028526  41.6660015  13.0497043  48.0147221  42.1843511
  13.6191472  48.2415179  40.8000906  19.6771547  54.4273230  49.6142530
  19.7415980  54.8893637  50.4500702  18.9682471  53.7970594  49.7424840
  10.1788837  47.7914438  47.1391529  10.4296876  48.6761447  47.4049105
  10.7148386  47.6119039  46.3666621  19.3919565  56.0941337  39.4821510
  19.2565240  56.9392873  39.9106358  19.9329378  56.2960615  38.7187444
  15.8786905  42.1732917  56.1435865  15.4853850  41.6199115  56.8183510
  16.6953045  42.4843495  56.5342383  12.8448963  53.6116775  40.0549435
  13.3573483  54.4060025  40.2055000  13.4971675  52.9143066  39.9883037
  14.6543847  56.7282531  42.1372189  14.8310476  57.6500496  41.9493172
  15.4500681  56.4140951  42.5666568  18.7954866  43.5890796  53.7356122
  19.5364579  44.1897949  53.6560585  19.0272789  42.8468434  53.1774165
  13.9396204  48.7747163  52.0134352  13.8249719  47.8732420  52.3141451
  13.0840722  49.0210860  51.6619168  21.0188042  56.7164904  53.6121852
  20.5751896  55.9301282  53.2942757  21.6805255  56.9044054  52.9465743
  15.7775163  58.2460705  48.1382531  16.3282588  58.1177769  47.3659525
  14.9386639  58.5455594  47.7877424  23.1169280  56.9967703  51.6403254
  23.0987755  57.8176585  51.1483523  24.0389200  56.8721779  51.8653395
  19.5742334  54.5111833  52.4826762  20.1070671  53.7500121  52.2526070
  19.0456415  54.2185485  53.2250916  22.7412029  39.6171899  48.0120404
  22.3976298  40.5073541  47.9359514  23.1090991  39.4273557  47.1489989
  10.8097879  51.9405429  40.8309006  11.6473101  52.3502438  40.6142714
  10.9876147  51.0004872  40.8009200  22.7062311  49.6080510  36.5192839
  22.1908935  50.3785115  36.7581226  22.4339620  48.9345646  37.1425900
  20.2909422  44.4530211  41.5778077  19.4351019  44.0637061  41.3983716
  20.7036374  44.5322172  40.7177863  21.8208569  41.9876554  45.9769637
  21.3173365  41.9506689  45.1637442  22.1139176  42.8969297  46.0366294
  18.0651455  42.0715284  44.9835819  18.9304452  41.8758092  44.6241708
  18.1328964  41.8425636  45.9105175  27.6796586  52.3612865  38.4546012
  26.9026028  52.0224024  38.0101174  28.3588067  52.3665488  37.7800977
  22.4948615  47.4807602  38.3452620  22.1898750  47.7953751  39.1962763
  23.4479057  47.5589022  38.3879953  20.9395046  53.6397825  39.9945574
  20.4116408  52.9050585  39.6818811  20.4382549  54.4172502  39.7485542
  15.6713774  44.3017492  42.3552186  16.2457526  44.0792673  41.6225378
  16.2584756  44.3706186  43.1080787  24.7293351  50.1891219  43.1616562
  25.2425233  50.8221210  43.6638272  25.3794575  49.5892414  42.7959922
  15.9983361  46.3321953  36.3748071  15.1620673  46.6696639  36.6957346
  15.8588131  46.1970933  35.4375208  17.9736442  41.1758741  41.0827255
  17.3200854  40.8607758  40.4583870  17.9316916  40.5534481  41.8087078
  19.0847647  51.4578036  32.9980547  18.1774708  51.2267289  33.1971696
  19.5818679  50.6615655  33.1854529  21.9915726  60.1675543  35.9177233
  21.3177424  60.4707240  36.5262191  22.3781547  60.9704623  35.5682690
  21.2074182  47.6640674  45.4074903  20.2896743  47.8855621  45.2496591
  21.6234326  47.7386985  44.5486610  21.9909230  49.0632090  40.5377583
  22.7381049  49.5753487  40.2284705  22.2600819  48.7416143  41.3981976
  20.2635880  51.5590631  37.5204537  19.3547099  51.2749663  37.6177007
  20.2930964  51.9789709  36.6607844  25.4955147  55.1697220  41.2895705
  25.0417475  54.3288130  41.3460895  24.8649114  55.8058618  41.6270485
  24.4388067  46.0989206  42.5196372  23.7010824  45.5866592  42.8506615
  24.6914841  45.6589588  41.7079649  24.5399694  38.8765458  43.1138141
  24.8458571  38.0162822  42.8264056  25.2652299  39.4683078  42.9137135
  10.8324050  49.2796145  41.5019739  10.6348450  48.6865505  40.7770806
  10.2770714  48.9748355  42.2195678  18.8120774  49.1719251  43.6214332
  18.8669384  48.2193088  43.5456809  18.0011976  49.3278690  44.1055631
  19.9611968  53.0999374  34.8592616  19.5231398  52.3835233  34.3998253
  20.7022409  53.3275489  34.2977707  16.7513134  47.7896311  41.3804711
  15.9381000  48.0890481  41.7869903  17.2472128  47.3952000  42.0979194
  18.9021712  57.7854068  43.3138976  18.8597891  58.0114914  42.3847508
  19.8184411  57.5517442  43.4624777  22.3487346  48.2538135  50.2119605
  22.7036733  48.4809609  51.0714071  22.9959477  48.5856512  49.5896861
  28.0785083  51.3756571  40.9168934  27.9402981  51.5658167  39.9890123
  27.7221301  52.1375954  41.3736985  16.2427209  45.3614666  46.9965946
  16.8826588  45.2203426  46.2988910  15.4104739  45.0749180  46.6204548
  17.0187513  54.6617097  43.1100939  17.8128111  54.1667417  42.9083514
  16.3079205  54.1334960  42.7468644  21.8382357  57.0435192  47.4613306
  21.8919379  57.6126129  48.2291022  20.9697139  57.2137077  47.0967343
  13.3270276  48.8060179  39.1860691  12.3967864  48.7444634  39.4030654
  13.4227748  48.2836131  38.3897333  13.2455825  45.3314991  41.7738933
  13.5062643  46.2460325  41.6648094  14.0672998  44.8639434  41.9235546
  14.7180751  46.7452749  48.9437758  15.3903804  46.5370111  48.2950407
  13.8910537  46.5474835  48.5042990  20.6206323  43.3714690  50.9603418
  19.9734238  44.0704639  50.8667895  21.3907338  43.8050833  51.3279667
  20.7970457  51.2095454  49.0200238  21.7262517  51.3606614  48.8469206
  20.3761487  51.2979475  48.1648885  19.5958789  55.2346119  46.7898776
  19.4569874  54.8664903  47.6624714  18.8073385  55.7493758  46.6182734
  20.1906941  60.3355215  38.1324312  20.3658696  59.8643259  38.9469935
  19.5039729  60.9620982  38.3605573  21.1464004  54.6127722  44.1787614
  20.8113836  54.5728492  45.0745264  20.6467950  53.9472437  43.7058024
  15.1208248  50.0195352  49.7040195  14.9828046  49.2875590  50.3051734
  16.0313171  49.9304252  49.4224383  24.0823195  51.9583756  34.4524673
  23.4652366  51.2330584  34.3557726  23.6139684  52.7193116  34.1091748
  17.7490548  49.7315311  49.1923874  18.4590167  49.0908503  49.1510493
  17.7059857  49.9828206  50.1150055  16.4619482  46.7180529  51.0119514
  15.9256839  46.2671267  51.6641110  15.8736191  46.8526438  50.2689978
  14.7568026  63.4844578  44.9064173  14.9964624  64.1163102  45.5843191
  13.9137222  63.1332618  45.1929532  15.8721741  46.1769180  33.5745978
  14.9951208  46.0557981  33.2108224  16.3479494  45.3855259  33.3224866
   7.3923882  50.9646340  43.6687485   8.0794921  50.6508070  43.0808500
   7.2372010  51.8687705  43.3954736  12.1958604  45.8536536  48.0972508
  12.1116792  45.2462206  47.3622918  11.3741310  46.3445555  48.0982005
  19.2695888  59.2923701  47.3105677  19.1966059  60.0978672  47.8224981
  18.8273281  59.4915666  46.4853698  19.0585667  58.5295471  40.8208498
  18.2753189  59.0717151  40.9146723  19.7578413  59.0469450  41.2202739
  22.3682318  44.3390100  43.4642703  22.8651017  43.5860062  43.1443774
  21.5969299  44.3754417  42.8985913  23.4512098  53.0961787  41.0381127
  22.5168377  53.2163250  40.8685831  23.6288767  52.1934254  40.7741137
  18.9517286  46.4807483  43.1914388  18.5815074  45.9278523  43.8795294
  19.4476379  45.8765616  42.6389388  26.8384650  48.9379107  41.5731161
  27.3045102  49.7707098  41.4991464  27.2892150  48.4724088  42.2776419
  16.7806485  56.9404978  50.2869406  17.4815944  57.5741461  50.4398800
  16.3101600  57.2819710  49.5265045  24.9060881  55.2822928  38.5717313
  25.1820725  55.1679522  39.4811187  24.0365379  54.8840413  38.5329486
  24.8101312  41.3059694  45.6122062  23.8964392  41.5363920  45.7804269
  25.2394414  41.3898138  46.4636095  21.5414945  59.5309279  42.2150127
  21.7237339  58.7130935  42.6777879  22.3647931  59.7476971  41.7775017
  21.8757110  58.4577464  39.4765175  22.4044877  57.9469918  38.8635337
  22.1385330  58.1419994  40.3410708  20.6295344  50.2369397  54.5987993
  19.9535981  50.1363526  55.2690369  21.4522978  50.0808610  55.0623991
  12.3774203  56.4741333  47.2200509  12.9627640  55.7285021  47.3528413
  12.1799041  56.7845290  48.1037173  15.2312858  59.5092580  42.2362951
  14.5623233  59.9938708  41.7526991  15.0925728  59.7561801  43.1506330
   6.9691858  49.0446933  45.9404952   7.0075957  48.5110524  46.7342070
   6.4632150  48.5182139  45.3215929  14.3482620  43.8911474  49.4367494
  14.4123946  44.7526305  49.0244892  14.2849740  43.2785475  48.7039853
  13.8234892  45.9634606  53.0840528  14.4506931  45.5811684  53.6978053
  12.9662811  45.7448808  53.4496221  24.2229001  56.3697582  54.6894264
  24.7668905  56.9827540  54.1949219  23.6415846  56.9277160  55.2061277
  10.6000435  47.7711035  39.0158883  10.8953876  46.8621714  38.9625937
   9.6988471  47.7498775  38.6939886  22.5086514  59.4918300  45.8209292
  22.3837653  58.6908039  45.3120237  23.1665605  59.9864493  45.3323262
  14.1294682  45.8467032  44.9986432  13.4081268  46.4603000  44.8593905
  14.9187938  46.3824797  44.9203078  24.5721422  57.2927320  47.4488842
  23.6251758  57.1732671  47.3767168  24.9204195  56.4049818  47.5315103
  16.9320996  43.1821459  51.2727084  17.4555398  43.4283755  52.0353393
  16.7133329  44.0141493  50.8530221  12.3288277  45.4525133  39.1398208
  12.0000983  44.5722512  38.9573314  12.6827648  45.3972802  40.0274598
  21.5767856  57.0880036  43.6493194  21.4292818  56.1596743  43.8300764
  22.4021349  57.1100127  43.1650269  15.4430100  45.7398103  39.5073686
  15.7826172  46.2684024  38.7852294  15.8902220  46.0778509  40.2832253
  18.1373541  44.1235154  48.9576754  17.7970361  43.3242967  49.3597434
  17.4312547  44.4236864  48.3853587  18.7890013  41.2084466  47.4104077
  19.6116082  40.7344944  47.2882967  19.0328076  41.9874950  47.9102763
  17.4298247  44.2372724  37.7066979  18.1506610  44.6153977  37.2030696
  16.8063551  44.9561601  37.8101957  21.5729370  44.9417873  38.6425311
  21.7892984  45.8242511  38.3414139  21.0923437  44.5504087  37.9130953
  16.3128591  47.9003587  45.2196056  16.1673172  48.2143890  46.1120337
  15.8353795  48.5188487  44.6666954  18.1724974  44.8906135  45.2676945
  18.1586543  43.9947228  44.9309243  18.8897402  44.8976798  45.9015231
  20.0251105  45.3243475  47.3130073  19.7668883  46.2460546  47.3114403
  19.4936145  44.9273909  48.0030537  10.7874254  50.4408931  48.1583717
  10.2427722  51.2168739  48.2903991  11.6653603  50.7879736  48.0002838
  17.5761870  43.7720515  40.5364515  17.6977781  42.8437161  40.7355403
  17.2863913  43.7859201  39.6242831  20.4453061  41.4575425  43.6731235
  20.4674757  41.5214758  42.7183215  20.8621120  40.6179934  43.8671741
  25.9572466  57.7461026  37.1917056  26.6523371  58.3667719  37.4104371
  26.2995616  56.8956378  37.4669434  11.5740275  49.5678827  51.0513874
  10.8322011  49.7161463  51.6378504  11.2533020  49.8287093  50.1880623
  27.8563889  55.1960732  38.7204387  28.3815213  55.5348005  37.9953707
  27.7686242  54.2607747  38.5367522  19.5404550  61.2632715  43.0799640
  19.1009540  60.7709094  43.7732497  20.2912667  60.7205683  42.8391716
  12.0196889  57.4544256  43.0824268  12.8454909  57.1548028  42.7022912
  11.6690941  56.6851879  43.5314057  16.9878422  56.8070724  45.1521942
  16.3658432  56.1441429  44.8524170  17.6583289  56.8331856  44.4695590
  10.2205494  55.3730583  44.0413202   9.3837402  54.9452757  43.8597203
  10.1929140  55.5663026  44.9783993  17.0602950  45.2852512  54.7454448
  17.1091105  46.1614635  54.3632218  17.6025464  44.7429905  54.1726091
  16.5491929  55.3574648  38.6280403  16.6980050  56.0410112  37.9747075
  17.3558373  55.3379738  39.1429858  24.9559433  48.6617030  52.6547620
  25.8569296  48.5223495  52.3631618  25.0307407  48.8271485  53.5945798
  19.2902238  46.0383885  51.5000807  18.4205548  46.3317451  51.2283395
  19.5261719  46.6224330  52.2208070  14.3044562  51.3839825  39.6341471
  14.0590604  50.4802155  39.8321682  14.4740477  51.3856976  38.6920949
  21.9941272  42.2563502  49.0166227  22.5123216  42.9924529  48.6912716
  21.6396405  42.5627495  49.8512986  13.5740210  47.1168183  37.1327633
  12.8809455  47.1912538  36.4767669  13.3291962  46.3528526  37.6549150
  22.2453866  38.6763784  44.5367124  22.5255620  38.0086973  45.1627550
  23.0304473  38.8692880  44.0241788  20.0487335  57.8522778  36.0992150
  19.4761302  58.4712965  35.6462622  20.6220128  58.4022140  36.6332072
  26.1162725  47.0981418  48.2838699  27.0680147  47.1979516  48.3050923
  25.9466175  46.3059687  48.7936783  24.1377104  44.1837001  48.4698100
  23.5427036  44.4642014  47.7744588  23.8526801  44.6730902  49.2414841
  23.2684594  58.1359928  37.2300732  24.2015268  58.0705490  37.4333608
  23.1807807  58.9716195  36.7715265  25.8972611  57.4525799  34.1904680
  25.8186243  57.1185662  35.0840438  26.7182278  57.9447566  34.1896152
  20.4334133  49.1883591  33.4408202  21.3793238  49.0589799  33.5096621
  20.0548378  48.4498253  33.9177631  28.7445291  47.1098581  47.4439282
  28.2284339  46.3257038  47.2569210  29.6285239  46.7817298  47.6085801
  26.4056018  40.8539597  43.4035094  26.2080839  40.5454685  44.2878426
  27.0155723  41.5801236  43.5333024  20.3172826  53.2401337  54.9008859
  21.2375835  53.4179936  55.0948906  20.2822409  52.2957382  54.7488559
  18.6177050  47.1133567  33.3763088  17.7108506  46.8166680  33.4525801
  18.8953031  46.8163385  32.5097374   9.5354991  48.4339931  43.8262134
   9.2157775  47.5805239  43.5336508   8.9888419  48.6488509  44.5820101
  13.3134898  51.1502372  47.5431641  13.5320908  52.0819479  47.5619674
  13.7260672  50.7910346  48.3286444  20.2339116  41.6570457  39.5307329
  19.4239844  41.3117542  39.9062575  20.9223533  41.3478001  40.1194941
  22.1629664  40.7348504  41.1531626  22.7160703  41.1543957  41.8121649
  22.3999751  39.8084252  41.1954582  18.1862764  46.7235577  56.9334390
  18.0859490  47.6729934  56.8646481  17.9684306  46.3953816  56.0610460
  17.3875835  43.9720502  33.5175067  18.2494999  44.2975401  33.7770884
  17.5726179  43.1851998  33.0048133   9.4043251  52.0542842  45.7955256
   8.7106722  51.6396795  45.2825210  10.1516242  52.0963379  45.1988675
  25.5408471  42.8449029  40.6610290  24.9607140  43.5033833  40.2788342
  25.2744404  42.0226374  40.2497707  23.9912038  42.2454087  42.8631610
  24.4911816  42.3570621  42.0545929  24.6347646  41.9415139  43.5032419
  18.0494034  50.1532716  55.7499451  17.5661115  50.9533076  55.9563340
  18.1354973  50.1640661  54.7966895  11.3179993  51.9861096  43.6721271
  11.2950681  52.0848783  42.7203154  11.6280630  52.8326247  43.9938437
  13.9767371  54.0437251  47.7867885  14.9310625  54.0121193  47.7197817
  13.7779895  53.5827875  48.6018111  14.5666753  52.6138367  50.3538683
  15.3859642  53.1082446  50.3773520  14.8403561  51.6970335  50.3256250
  24.3233349  45.0049119  39.7166638  23.4359204  45.2898770  39.4986833
  24.7387339  44.8442883  38.8693915  27.6747886  45.0295640  43.4320977
  28.4508276  45.5192093  43.7045594  26.9496020  45.4553694  43.8892847
  30.1120444  45.7423259  44.4894918  30.7064935  45.5018995  43.7788226
  30.1847028  45.0230390  45.1168454  12.3317600  59.5856870  44.8038083
  12.1972068  58.8257271  44.2376081  11.9149662  60.3097770  44.3366872
  23.4676563  54.7693794  33.8114658  24.1712413  54.9743796  34.4272314
  22.7439212  55.3370556  34.0763742  24.2974373  50.5203655  39.9316928
  24.2409575  50.9772207  39.0924561  24.8502716  49.7594340  39.7539771
  28.1079179  46.3093387  40.7567048  27.8516113  45.9090023  41.5875256
  27.4832047  47.0237181  40.6317187  15.4886726  60.4826187  45.0156526
  15.3719110  61.4271620  44.9135216  14.6679172  60.1799749  45.4042325
  25.3763260  55.2076323  35.8613118  26.2108864  54.7757522  35.6790593
  25.2147603  55.0358337  36.7890013  25.0309153  51.7108436  37.2269458
  24.9757956  51.5452708  36.2857902  24.4055208  52.4184469  37.3831647
   9.8201667  46.9476501  51.0530880  10.4660531  46.4375455  51.5418105
   9.6118819  47.6845182  51.6274305  22.3455060  54.0157348  56.5523020
  23.2146219  54.1898001  56.1909655  21.8661811  54.8351765  56.4298750
  18.3405278  41.2116545  36.8054776  18.3283948  42.1558385  36.9623047
  19.2328700  41.0286691  36.5114237  16.5141240  61.1354449  48.2312454
  17.4168487  61.1678060  48.5478949  16.2878610  60.2054900  48.2458790
  18.2694842  59.8885436  44.8922533  17.3190473  59.8887297  44.7786905
  18.5727328  59.1418170  44.3758567  22.1557397  37.8059322  41.0600713
  21.3889793  37.2517809  41.2057395  22.5668102  37.8781191  41.9214864
  14.1599158  44.0944118  55.1505894  15.0230620  43.7380923  55.3609219
  13.5864569  43.7558013  55.8381298  25.5961780  78.8136496  44.9064173
  25.8358379  79.4455020  45.5843191  24.7530977  78.4624536  45.1929532
  17.8085612  64.3738851  45.9404952  17.8469712  63.8402442  46.7342070
  17.3025905  63.8474056  45.3215929  31.0732871  56.9862375  39.5307329
  30.2633599  56.6409460  39.9062575  31.7617287  56.6769918  40.1194941
  23.1711354  74.9148788  44.8038083  23.0365822  74.1549189  44.2376081
  22.7543417  75.6389688  44.3366872  29.1799032  56.5408463  36.8054776
  29.1677702  57.4850303  36.9623047  30.0722454  56.3578609  36.5114237
  38.7968705  91.3943019  40.7615971  38.7192735  92.3450845  40.8404451
  38.1930349  91.0488892  41.4190897  49.2205693  85.0141107  42.6864119
  48.5356732  85.3940009  42.1361152  49.3049543  85.6236434  43.4196066
  47.5902453  85.5373022  47.4581819  48.4119897  85.1353209  47.1764501
  47.5864856  85.4341256  48.4097935  42.6975551  87.3748739  53.6121852
  42.2539405  86.5885117  53.2942757  43.3592764  87.5627889  52.9465743
  37.4562672  88.9044541  48.1382531  38.0070097  88.7761604  47.3659525
  36.6174148  89.2039430  47.7877424  44.7956789  87.6551539  51.6403254
  44.7775264  88.4760420  51.1483523  45.7176709  87.5305614  51.8653395
  43.6703234  90.8259378  35.9177233  42.9964933  91.1291075  36.5262191
  44.0569056  91.6288459  35.5682690  47.1742656  85.8281055  41.2895705
  46.7204984  84.9871965  41.3460895  46.5436623  86.4642454  41.6270485
  43.5169866  87.7019028  47.4613306  43.5706888  88.2709964  48.2291022
  42.6484648  87.8720913  47.0967343  41.8694450  90.9939051  38.1324312
  42.0446205  90.5227094  38.9469935  41.1827238  91.6204817  38.3605573
  47.4164836  87.3266500  52.1130454  47.3577382  86.6425720  51.4461037
  47.8184355  88.0685490  51.6611080  36.4355535  94.1428413  44.9064173
  36.6752133  94.7746938  45.5843191  35.5924731  93.7916453  45.1929532
  47.4182243  85.2906084  50.3444433  46.5309022  84.9532005  50.4670832
  47.9880794  84.5589115  50.5813199  40.9483397  89.9507536  47.3105677
  40.8753568  90.7562507  47.8224981  40.5060790  90.1499502  46.4853698
  43.4082080  89.8494370  49.4663835  44.1210053  90.4841835  49.3939737
  42.9172109  89.9458236  48.6503837  38.4593994  87.5988813  50.2869406
  39.1603453  88.2325296  50.4398800  37.9889109  87.9403545  49.5265045
  36.9100367  90.1676416  42.2362951  36.2410742  90.6522543  41.7526991
  36.7713237  90.4145636  43.1506330  41.0505636  92.2020159  48.8345609
  41.6023944  92.3651781  49.5994695  41.3911829  92.7924597  48.1625634
  45.9016510  87.0281417  54.6894264  46.4456414  87.6411375  54.1949219
  45.3203355  87.5860995  55.2061277  44.1874023  90.1502135  45.8209292
  44.0625162  89.3491875  45.3120237  44.8453114  90.6448328  45.3323262
  46.2508931  87.9511155  47.4488842  45.3039267  87.8316506  47.3767168
  46.5991704  87.0633653  47.5315103  46.8589487  88.5692430  44.7358067
  47.7836034  88.3635291  44.5982518  46.6904790  88.3208831  45.6447408
  46.6484803  89.0878097  40.0920158  46.8221680  88.5224520  39.3394011
  47.1413694  89.8878992  39.9099648  47.6359975  88.4044862  37.1917056
  48.3310880  89.0251554  37.4104371  47.9783125  87.5540213  37.4669434
  41.1971447  89.7678641  50.8494264  41.5058573  89.5227788  51.7216963
  41.9946929  89.9725279  50.3613134  41.2192059  91.9216551  43.0799640
  40.7797049  91.4292929  43.7732497  41.9700176  91.3789518  42.8391716
  49.2245304  86.4877471  54.0255585  48.4340848  86.4701610  53.4860085
  48.9878659  87.0265765  54.7804622  50.8461376  85.7566879  51.5830335
  50.5546185  86.1196859  52.4193796  50.2333508  85.0433887  51.4043667
  41.7274844  88.5106613  36.0992150  41.1548811  89.1296801  35.6462622
  42.3007637  89.0605975  36.6332072  44.9472103  88.7943764  37.2300732
  45.8802777  88.7289325  37.4333608  44.8595316  89.6300030  36.7715265
  34.0105109  90.2440706  44.8038083  33.8759577  89.4841107  44.2376081
  33.5937171  90.9681606  44.3366872  37.1674235  91.1410023  45.0156526
  37.0506619  92.0855455  44.9135216  36.3466681  90.8383584  45.4042325
  44.0242569  84.6741184  56.5523020  44.8933728  84.8481836  56.1909655
  43.5449320  85.4935601  56.4298750  38.1928749  91.7938285  48.2312454
  39.0955996  91.8261895  48.5478949  37.9666119  90.8638736  48.2458790
  39.9482351  90.5469271  44.8922533  38.9977982  90.5471133  44.7786905
  40.2514837  89.8002006  44.3758567  55.6835044  96.3829810  45.9568295
  56.3213454  96.2636557  45.2531635  55.5655887  97.3310654  46.0156247
  52.4924751  96.3357238  45.8929820  52.1543262  96.2198302  45.0050354
  53.3614519  95.9348403  45.8730826  48.3511566  98.1892714  41.8826711
  47.7876432  98.0982651  41.1142998  48.2363961  97.3692619  42.3629203
  52.9744534  97.4892089  51.8516025  52.9633174  97.0944888  50.9796529
  53.1365173  96.7558162  52.4449797  45.8975998  99.6843906  44.7210931
  46.6897290  99.3434730  44.3057230  46.1372648  99.7938881  45.6413084
  53.9311125 101.8563682  37.1941175  53.2799105 102.4417762  36.8075189
  54.7255488 102.3869877  37.2536213  47.8566752  98.9452819  37.5928310
  48.6297628  98.3981806  37.4541186  48.2092151  99.8097068  37.8042771
  49.6951795 100.2729201  50.7995209  49.4041661 101.1774832  50.6841875
  50.3308779 100.3145729  51.5139279  50.6208002  97.6506050  47.3896569
  51.2171574  97.4262072  46.6753532  50.6782973  96.9090795  47.9922017
  50.1933030  95.1045485  35.2246760  50.4458551  94.5827006  34.4630223
  49.2557589  94.9411631  35.3273443  55.2376313  94.1081263  43.0321503
  56.0239402  93.6900687  42.6811920  55.5015017  95.0127356  43.2003151
  55.4086390  99.5454114  37.7310160  54.7732223  99.6188740  38.4431064
  55.0783797 100.1347713  37.0529239  60.6384740  94.0456497  43.9354481
  61.3709912  93.4755713  44.1692311  59.8824096  93.6578097  44.3760987
  49.9129319  97.0073591  37.4271135  49.7965577  96.3318494  38.0952219
  50.0231579  96.5205965  36.6103288  52.2560860  96.4683738  41.1317824
  51.8919067  95.9414359  41.8430745  53.1127976  96.0782207  40.9584309
  58.1610160  87.7578071  48.3949090  57.8293485  88.6273482  48.1710305
  57.5655774  87.4414355  49.0743120  51.8966347  91.4973638  36.1279172
  52.0640749  92.3653874  36.4949644  51.7063516  91.6600920  35.2040462
  54.6541680  99.9590617  47.7945003  54.3542403 100.8615656  47.6860810
  54.3092739  99.6922800  48.6466156  48.1054161  96.4104414  43.8281707
  47.1804658  96.2780628  44.0359399  48.3538575  97.1898633  44.3251650
  58.0538824  92.4773157  45.4742440  57.1455701  92.4088565  45.1801201
  58.0026419  92.9545102  46.3024266  51.8755568  93.9531295  37.1125839
  51.7555193  94.3988346  37.9511320  51.1808156  94.3016613  36.5539377
  45.4662972  96.0537687  44.6625496  45.5955354  96.3072166  45.5764908
  44.7860424  96.6465395  44.3430151  49.6362460 106.7234937  40.7615971
  49.5586489 107.6742762  40.8404451  49.0324103 106.3780810  41.4190897
  52.1279689  93.8962803  53.4177337  51.3513024  94.4556723  53.4080202
  52.7670253  94.3819586  53.9392208  59.9200470  90.6789595  47.2520314
  59.2774850  90.9722129  46.6060109  59.4155399  90.5642516  48.0573511
  57.5740634  94.4252769  37.9406173  58.4858490  94.6580155  37.7653871
  57.0650281  95.0089813  37.3781252  50.3826062  96.7048256  52.9795304
  51.1240746  97.2433300  52.7030128  49.6763047  97.3314545  53.1366856
  55.8581401  98.8477396  51.5767466  56.2664757  98.4059807  50.8322098
  55.1358663  98.2730024  51.8301659  52.2112471  93.7850003  48.9501023
  53.0573667  94.2089417  49.0935672  52.1511109  93.1283627  49.6439586
  56.1810216  99.4078587  45.3319755  55.5519078  99.5724301  44.6295823
  55.7935878  99.8220197  46.1030719  60.0599448 100.3433025  42.6864119
  59.3750486 100.7231926  42.1361152  60.1443297 100.9528352  43.4196066
  55.3611917  91.4454372  50.6082196  55.1172849  92.1996432  50.0716472
  55.6371847  91.8239719  51.4429444  57.3150380  97.9892984  49.2859462
  57.5267275  98.6324744  48.6093843  57.2680128  97.1555300  48.8181392
  54.9176609  90.6010805  46.1896034  54.0561088  90.8992058  46.4812772
  54.9439043  90.8181203  45.2577067  51.7338178  99.1452995  42.5969840
  52.1976523  99.4240698  41.8074462  51.4694976  98.2436440  42.4142931
  48.6262259  98.6924477  45.5349603  49.1963616  99.1211745  44.8967088
  49.2170371  98.4107061  46.2333789  50.6707064  95.2676147  39.4059405
  51.3731107  95.7197191  39.8733331  50.3387692  94.6259966  40.0339298
  49.1187426  93.8587904  53.7810614  48.4886086  94.5404185  54.0146011
  49.0123513  93.7470986  52.8363753  44.4132398  93.5259700  44.7076539
  43.6231452  93.7817229  44.2316649  44.9043645  94.3408038  44.8128579
  58.4296208 100.8664939  47.4581819  59.2513651 100.4645127  47.1764501
  58.4258610 100.7633173  48.4097935  46.3647143  93.8904279  41.6660015
  45.5678307  94.0022974  42.1843511  46.1372736  94.2290932  40.8000906
  52.1952811 100.4148983  49.6142530  52.2597243 100.8769390  50.4500702
  51.4863735  99.7846348  49.7424840  42.6970101  93.7790191  47.1391529
  42.9478139  94.6637200  47.4049105  43.2329649  93.5994792  46.3666621
  66.5202201  97.2103688  43.8066791  65.7665909  96.6411086  43.6510795
  66.6549742  97.1766352  44.7537426  51.9100829 102.0817090  39.4821510
  51.7746503 102.9268626  39.9106358  52.4510641 102.2836368  38.7187444
  48.3968168  88.1608670  56.1435865  48.0035114  87.6074868  56.8183510
  49.2134309  88.4719248  56.5342383  45.3630226  99.5992528  40.0549435
  45.8754747 100.3935778  40.2055000  46.0152939  98.9018819  39.9883037
  47.1725111 102.7158284  42.1372189  47.3491739 103.6376249  41.9493172
  47.9681944 102.4016704  42.5666568  51.3136129  89.5766549  53.7356122
  52.0545843  90.1773702  53.6560585  51.5454052  88.8344187  53.1774165
  46.4577467  94.7622916  52.0134352  46.3430982  93.8608174  52.3141451
  45.6021985  95.0086613  51.6619168  53.5369305 102.7040657  53.6121852
  53.0933159 101.9177035  53.2942757  54.1986519 102.8919807  52.9465743
  48.2956426 104.2336458  48.1382531  48.8463851 104.1053522  47.3659525
  47.4567902 104.5331347  47.7877424  55.6350543 102.9843457  51.6403254
  55.6169018 103.8052338  51.1483523  56.5570463 102.8597532  51.8653395
  52.0923597 100.4987586  52.4826762  52.6251934  99.7375874  52.2526070
  51.5637678 100.2061238  53.2250916  55.2593292  85.6047652  48.0120404
  54.9157562  86.4949294  47.9359514  55.6272255  85.4149310  47.1489989
  43.3279143  97.9281182  40.8309006  44.1654365  98.3378191  40.6142714
  43.5057410  96.9880625  40.8009200  55.2243575  95.5956263  36.5192839
  54.7090198  96.3660868  36.7581226  54.9520883  94.9221399  37.1425900
  52.8090686  90.4405964  41.5778077  51.9532282  90.0512814  41.3983716
  53.2217638  90.5197925  40.7177863  54.3389833  87.9752307  45.9769637
  53.8354628  87.9382442  45.1637442  54.6320439  88.8845050  46.0366294
  50.5832718  88.0591037  44.9835819  51.4485715  87.8633846  44.6241708
  50.6510227  87.8301389  45.9105175  60.1977849  98.3488618  38.4546012
  59.4207292  98.0099777  38.0101174  60.8769330  98.3541241  37.7800977
  53.4576310  99.6273578  39.9945574  52.9297671  98.8926338  39.6818811
  52.9563813 100.4048255  39.7485542  58.4369156  97.8222599  45.1112620
  57.7792830  98.5121860  45.1992749  59.2409555  98.2119031  45.4546607
  48.1895038  90.2893245  42.3552186  48.7638789  90.0668426  41.6225378
  48.7766020  90.3581939  43.1080787  57.2474615  96.1766972  43.1616562
  57.7606496  96.8096964  43.6638272  57.8975839  95.5768167  42.7959922
  48.5164625  92.3197706  36.3748071  47.6801937  92.6572392  36.6957346
  48.3769394  92.1846686  35.4375208  50.4917705  87.1634494  41.0827255
  49.8382118  86.8483511  40.4583870  50.4498179  86.5410234  41.8087078
  51.6028910  97.4453789  32.9980547  50.6955972  97.2143042  33.1971696
  52.0999942  96.6491408  33.1854529  54.5096989 106.1551296  35.9177233
  53.8358688 106.4582993  36.5262191  54.8962811 106.9580376  35.5682690
  53.7255446  93.6516427  45.4074903  52.8078007  93.8731374  45.2496591
  54.1415589  93.7262738  44.5486610  54.5090493  95.0507843  40.5377583
  55.2562312  95.5629240  40.2284705  54.7782083  94.7291896  41.3981976
  52.7817144  97.5466384  37.5204537  51.8728363  97.2625416  37.6177007
  52.8112227  97.9665462  36.6607844  58.0136411 101.1572973  41.2895705
  57.5598738 100.3163883  41.3460895  57.3830378 101.7934371  41.6270485
  56.9569331  92.0864959  42.5196372  56.2192087  91.5742345  42.8506615
  57.2096104  91.6465341  41.7079649  56.4569350 102.9949470  42.2245523
  56.7492325 103.5554527  41.5057888  56.9667971 103.2878031  42.9798682
  43.3505314  95.2671898  41.5019739  43.1529714  94.6741258  40.7770806
  42.7951978  94.9624108  42.2195678  51.3302038  95.1595004  43.6214332
  51.3850647  94.2068841  43.5456809  50.5193240  95.3154443  44.1055631
  52.4793231  99.0875127  34.8592616  52.0412661  98.3710986  34.3998253
  53.2203672  99.3151242  34.2977707  49.2694397  93.7772064  41.3804711
  48.4562263  94.0766235  41.7869903  49.7653392  93.3827753  42.0979194
  51.4202975 103.7729821  43.3138976  51.3779154 103.9990667  42.3847508
  52.3365674 103.5393195  43.4624777  54.8668609  94.2413888  50.2119605
  55.2217997  94.4685362  51.0714071  55.5140740  94.5732265  49.5896861
  60.5966346  97.3632324  40.9168934  60.4584245  97.5533920  39.9890123
  60.2402565  98.1251707  41.3736985  48.7608472  91.3490419  46.9965946
  49.4007852  91.2079179  46.2988910  47.9286003  91.0624933  46.6204548
  60.6235726  99.4308851  45.9280206  61.0572232  99.3384140  46.7763260
  61.3367306  99.4066352  45.2900222  49.5368776 100.6492850  43.1100939
  50.3309375 100.1543170  42.9083514  48.8260469 100.1210713  42.7468644
  54.3563621 103.0310945  47.4613306  54.4100643 103.6001882  48.2291022
  53.4878402 103.2012830  47.0967343  45.8451540  94.7935932  39.1860691
  44.9149128  94.7320387  39.4030654  45.9409012  94.2711884  38.3897333
  45.7637089  91.3190744  41.7738933  46.0243906  92.2336078  41.6648094
  46.5854261  90.8515187  41.9235546  47.2362014  92.7328502  48.9437758
  47.9085067  92.5245864  48.2950407  46.4091801  92.5350588  48.5042990
  61.4851275  99.4732552  48.4613091  61.6787165 100.3778362  48.7072366
  61.3851893  99.0139971  49.2951676  53.1387586  89.3590443  50.9603418
  52.4915501  90.0580392  50.8667895  53.9088601  89.7926586  51.3279667
  56.5466384  99.6239295  54.0353972  56.3951890  99.3949846  53.1184055
  56.5371063 100.5809896  54.0485317  53.3151720  97.1971207  49.0200238
  54.2443780  97.3482367  48.8469206  52.8942750  97.2855228  48.1648885
  52.1140052 101.2221872  46.7898776  51.9751138 100.8540656  47.6624714
  51.3254648 101.7369511  46.6182734  52.7088204 106.3230968  38.1324312
  52.8839960 105.8519012  38.9469935  52.0220992 106.9496735  38.3605573
  53.6645267 100.6003475  44.1787614  53.3295100 100.5604245  45.0745264
  53.1649213  99.9348191  43.7058024  47.6389511  96.0071105  49.7040195
  47.5009309  95.2751343  50.3051734  48.5494435  95.9180005  49.4224383
  56.6004459  97.9459509  34.4524673  55.9833630  97.2206337  34.3557726
  56.1320947  98.7068869  34.1091748  50.2671812  95.7191064  49.1923874
  50.9771430  95.0784256  49.1510493  50.2241120  95.9703959  50.1150055
  58.2558591 102.6558417  52.1130454  58.1971137 101.9717637  51.4461037
  58.6578109 103.3977407  51.6611080  48.9800746  92.7056282  51.0119514
  48.4438103  92.2547020  51.6641110  48.3917454  92.8402191  50.2689978
  47.2749289 109.4720331  44.9064173  47.5145888 110.1038855  45.5843191
  46.4318486 109.1208371  45.1929532  48.3903005  92.1644933  33.5745978
  47.5132471  92.0433734  33.2108224  48.8660758  91.3731012  33.3224866
  58.2575998 100.6198001  50.3444433  57.3702777 100.2823923  50.4670832
  58.8274549  99.8881032  50.5813199  39.9105145  96.9522093  43.6687485
  40.5976185  96.6383823  43.0808500  39.7553274  97.8563458  43.3954736
  44.7139867  91.8412290  48.0972508  44.6298056  91.2337959  47.3622918
  43.8922574  92.3321308  48.0982005  51.7877151 105.2799454  47.3105677
  51.7147323 106.0854425  47.8224981  51.3454544 105.4791419  46.4853698
  51.5766931 104.5171224  40.8208498  50.7934453 105.0592904  40.9146723
  52.2759676 105.0345203  41.2202739  54.8863581  90.3265853  43.4642703
  55.3832281  89.5735815  43.1443774  54.1150563  90.3630170  42.8985913
  62.7393338  96.0306219  45.1060995  62.7283215  96.9130934  44.7354928
  61.8710718  95.6777769  44.9115532  54.2475835 105.1786288  49.4663835
  54.9603807 105.8133752  49.3939737  53.7565863 105.2750154  48.6503837
  55.9693362  99.0837540  41.0381127  55.0349640  99.2039003  40.8685831
  56.1470030  98.1810007  40.7741137  51.4698550  92.4683236  43.1914388
  51.0996337  91.9154276  43.8795294  51.9657642  91.8641370  42.6389388
  59.3565913  94.9254860  41.5731161  59.8226365  95.7582851  41.4991464
  59.8073414  94.4599841  42.2776419  49.2987748 102.9280731  50.2869406
  49.9997208 103.5617214  50.4398800  48.8282863 103.2695463  49.5265045
  57.4242144 101.2698681  38.5717313  57.7001988 101.1555275  39.4811187
  56.5546643 100.8716166  38.5329486  57.3282576  87.2935447  45.6122062
  56.4145656  87.5239673  45.7804269  57.7575677  87.3773891  46.4636095
  57.0989034  95.4825339  48.1121956  56.4460485  95.7301246  47.4574409
  57.4769414  94.6689477  47.7784434  54.0596208 105.5185032  42.2150127
  54.2418603 104.7006688  42.6777879  54.8829194 105.7352724  41.7775017
  54.3938374 104.4453217  39.4765175  54.9226140 103.9345671  38.8635337
  54.6566593 104.1295747  40.3410708  53.1476607  96.2245150  54.5987993
  52.4717244  96.1239279  55.2690369  53.9704241  96.0684363  55.0623991
  44.8955466 102.4617086  47.2200509  45.4808903 101.7160774  47.3528413
  44.6980305 102.7721043  48.1037173  47.7494122 105.4968334  42.2362951
  47.0804497 105.9814461  41.7526991  47.6106991 105.7437554  43.1506330
  39.4873121  95.0322686  45.9404952  39.5257221  94.4986277  46.7342070
  38.9813414  94.5057892  45.3215929  51.8899390 107.5312077  48.8345609
  52.4417698 107.6943699  49.5994695  52.2305584 108.1216515  48.1625634
  46.8663883  89.8787227  49.4367494  46.9305210  90.7402058  49.0244892
  46.8031004  89.2661228  48.7039853  46.3416156  91.9510359  53.0840528
  46.9688195  91.5687437  53.6978053  45.4844075  91.7324561  53.4496221
  56.7410265 102.3573335  54.6894264  57.2850168 102.9703293  54.1949219
  56.1597109 102.9152913  55.2061277  43.1181699  93.7586788  39.0158883
  43.4135140  92.8497467  38.9625937  42.2169734  93.7374528  38.6939886
  55.0267777 105.4794053  45.8209292  54.9018917 104.6783792  45.3120237
  55.6846869 105.9740246  45.3323262  46.6475946  91.8342785  44.9986432
  45.9262531  92.4478753  44.8593905  47.4369201  92.3700550  44.9203078
  57.0902686 103.2803073  47.4488842  56.1433021 103.1608424  47.3767168
  57.4385459 102.3925571  47.5315103  49.4502259  89.1697212  51.2727084
  49.9736661  89.4159508  52.0353393  49.2314592  90.0017246  50.8530221
  44.8469540  91.4400886  39.1398208  44.5182246  90.5598265  38.9573314
  45.2008911  91.3848555  40.0274598  54.0949119 103.0755789  43.6493194
  53.9474082 102.1472496  43.8300764  54.9202613 103.0975880  43.1650269
  47.9611363  91.7273856  39.5073686  48.3007436  92.2559777  38.7852294
  48.4083484  92.0654262  40.2832253  57.6983241 103.8984348  44.7358067
  58.6229788 103.6927209  44.5982518  57.5298544 103.6500749  45.6447408
  50.6554804  90.1110907  48.9576754  50.3151625  89.3118720  49.3597434
  49.9493811  90.4112618  48.3853587  51.3071276  87.1960219  47.4104077
  52.1297345  86.7220697  47.2882967  51.5509340  87.9750703  47.9102763
  49.9479511  90.2248478  37.7066979  50.6687873  90.6029730  37.2030696
  49.3244815  90.9437354  37.8101957  54.0910633  90.9293627  38.6425311
  54.3074248  91.8118264  38.3414139  53.6104701  90.5379840  37.9130953
  48.8309855  93.8879340  45.2196056  48.6854436  94.2019643  46.1120337
  48.3535058  94.5064240  44.6666954  50.6906238  90.8781888  45.2676945
  50.6767806  89.9822981  44.9309243  51.4078666  90.8852551  45.9015231
  52.5432368  91.3119228  47.3130073  52.2850146  92.2336299  47.3114403
  52.0117409  90.9149662  48.0030537  57.4878557 104.4170015  40.0920158
  57.6615435 103.8516438  39.3394011  57.9807448 105.2170910  39.9099648
  43.3055517  96.4284684  48.1583717  42.7608985  97.2044492  48.2903991
  44.1834867  96.7755489  48.0002838  50.0943134  89.7596268  40.5364515
  50.2159045  88.8312914  40.7355403  49.8045176  89.7734954  39.6242831
  63.3417948  97.1806438  41.7110458  63.7849094  96.4313763  41.3129581
  62.4644459  97.1716574  41.3284190  58.4753730 103.7336779  37.1917056
  59.1704634 104.3543472  37.4104371  58.8176880 102.8832131  37.4669434
  44.0921539  95.5554580  51.0513874  43.3503275  95.7037216  51.6378504
  43.7714283  95.8162846  50.1880623  60.3745153 101.1836485  38.7204387
  60.8996477 101.5223758  37.9953707  60.2867505 100.2483500  38.5367522
  52.0365202 105.0970559  50.8494264  52.3452328 104.8519705  51.7216963
  52.8340684 105.3017197  50.3613134  52.0585814 107.2508468  43.0799640
  51.6190804 106.7584847  43.7732497  52.8093931 106.7081436  42.8391716
  44.5378153 103.4420009  43.0824268  45.3636172 103.1423781  42.7022912
  44.1872205 102.6727632  43.5314057  49.5059686 102.7946477  45.1521942
  48.8839695 102.1317182  44.8524170  50.1764553 102.8207609  44.4695590
  42.7386758 101.3606336  44.0413202  41.9018666 100.9328510  43.8597203
  42.7110403 101.5538779  44.9783993  49.5784213  91.2728265  54.7454448
  49.6272369  92.1490388  54.3632218  50.1206727  90.7305658  54.1726091
  60.0639059 101.8169389  54.0255585  59.2734603 101.7993527  53.4860085
  59.8272413 102.3557682  54.7804622  60.1836934  98.6661855  51.3388314
  60.2334939  98.5011862  52.2803836  60.0750857  97.7989114  50.9486194
  49.0673193 101.3450401  38.6280403  49.2161313 102.0285865  37.9747075
  49.8739636 101.3255491  39.1429858  57.4740696  94.6492783  52.6547620
  58.3750559  94.5099248  52.3631618  57.5488671  94.8147238  53.5945798
  51.8083502  92.0259638  51.5000807  50.9386811  92.3193204  51.2283395
  52.0442982  92.6100083  52.2208070  61.6855131 101.0858796  51.5830335
  61.3939939 101.4488777  52.4193796  61.0727262 100.3725805  51.4043667
  62.8850813  98.6511676  44.1032905  63.7197704  99.0901480  44.2670466
  63.0209942  98.1750329  43.2841151  59.9342319  96.2091411  50.0510393
  60.4096441  96.4019057  49.2429245  59.0107884  96.2650597  49.8053777
  46.8225826  97.3715578  39.6341471  46.5771868  96.4677908  39.8321682
  46.9921740  97.3732729  38.6920949  54.5122535  88.2439255  49.0166227
  55.0304479  88.9800282  48.6912716  54.1577668  88.5503248  49.8512986
  46.0921473  93.1043936  37.1327633  45.3990718  93.1788291  36.4767669
  45.8473225  92.3404280  37.6549150  52.5668598 103.8398531  36.0992150
  51.9942565 104.4588718  35.6462622  53.1401392 104.3897893  36.6332072
  58.6343988  93.0857171  48.2838699  59.5861411  93.1855269  48.3050923
  58.4647438  92.2935440  48.7936783  56.6558367  90.1712754  48.4698100
  56.0608300  90.4517767  47.7744588  56.3708064  90.6606655  49.2414841
  55.7865858 104.1235681  37.2300732  56.7196531 104.0581243  37.4333608
  55.6989071 104.9591948  36.7715265  58.4153875 103.4401552  34.1904680
  58.3367506 103.1061415  35.0840438  59.2363541 103.9323320  34.1896152
  61.1132066  96.3063291  47.3980998  61.0808386  95.3679292  47.5840682
  61.7232689  96.3847328  46.6646823  52.9515397  95.1759344  33.4408202
  53.8974501  95.0465552  33.5096621  52.5729642  94.4374006  33.9177631
  61.2626554  93.0974334  47.4439282  60.7465603  92.3132791  47.2569210
  62.1466503  92.7693051  47.6085801  58.9237281  86.8415350  43.4035094
  58.7262102  86.5330438  44.2878426  59.5336987  87.5676989  43.5333024
  66.9308616  97.3679298  46.5387035  67.6612004  97.1064586  47.0994739
  66.3215561  96.6308020  46.5789103  65.0123913  95.5087160  47.1361486
  64.2857076  95.3743125  46.5277978  64.5971200  95.8163989  47.9418204
  52.8354089  99.2277090  54.9008859  53.7557099  99.4055689  55.0948906
  52.8003672  98.2833135  54.7488559  51.1358314  93.1009320  33.3763088
  50.2289769  92.8042433  33.4525801  51.4134295  92.8039138  32.5097374
  42.0536254  94.4215684  43.8262134  41.7339039  93.5680992  43.5336508
  41.5069682  94.6364262  44.5820101  45.8316162  97.1378125  47.5431641
  46.0502172  98.0695232  47.5619674  46.2441936  96.7786099  48.3286444
  50.7044027  92.7111330  56.9334390  50.6040754  93.6605687  56.8646481
  50.4865569  92.3829569  56.0610460  41.9224514  98.0418595  45.7955256
  41.2287986  97.6272548  45.2825210  42.6697505  98.0839132  45.1988675
  58.0589735  88.8324782  40.6610290  57.4788404  89.4909586  40.2788342
  57.7925668  88.0102127  40.2497707  56.5093301  88.2329840  42.8631610
  57.0093080  88.3446374  42.0545929  57.1528909  87.9290892  43.5032419
  50.5675297  96.1408469  55.7499451  50.0842379  96.9408829  55.9563340
  50.6536236  96.1516414  54.7966895  43.8361257  97.9736849  43.6721271
  43.8131945  98.0724536  42.7203154  44.1461893  98.8202000  43.9938437
  46.4948635 100.0313004  47.7867885  47.4491888  99.9996946  47.7197817
  46.2961158  99.5703628  48.6018111  47.0848017  98.6014120  50.3538683
  47.9040906  99.0958199  50.3773520  47.3584824  97.6846088  50.3256250
  56.8414613  90.9924872  39.7166638  55.9540468  91.2774523  39.4986833
  57.2568602  90.8318636  38.8693915  60.1929149  91.0171393  43.4320977
  60.9689539  91.5067846  43.7045594  59.4677283  91.4429448  43.8892847
  62.6301708  91.7299013  44.4894918  63.2246198  91.4894748  43.7788226
  62.7028291  91.0106143  45.1168454  44.8498863 105.5732623  44.8038083
  44.7153331 104.8133024  44.2376081  44.4330926 106.2973523  44.3366872
  55.9857826 100.7569547  33.8114658  56.6893677 100.9619549  34.4272314
  55.2620475 101.3246309  34.0763742  56.8155637  96.5079408  39.9316928
  56.7590838  96.9647960  39.0924561  57.3683979  95.7470093  39.7539771
  60.6260443  92.2969140  40.7567048  60.3697377  91.8965776  41.5875256
  60.0013311  93.0112934  40.6317187  64.9372780  95.0365213  43.2638339
  64.3772338  95.1058403  44.0369901  64.3316284  94.8606198  42.5437835
  48.0067989 106.4701940  45.0156526  47.8900373 107.4147373  44.9135216
  47.1860436 106.1675502  45.4042325  57.8944524 101.1952076  35.8613118
  58.7290128 100.7633275  35.6790593  57.7328867 101.0234090  36.7890013
  57.5490416  97.6984190  37.2269458  57.4939220  97.5328461  36.2857902
  56.9236471  98.4060222  37.3831647  42.3382931  92.9352254  51.0530880
  42.9841795  92.4251208  51.5418105  42.1300082  93.6720936  51.6274305
  54.8636323 100.0033101  56.5523020  55.7327483 100.1773754  56.1909655
  54.3843075 100.8227518  56.4298750  49.0322503 107.1230202  48.2312454
  49.9349750 107.1553813  48.5478949  48.8059873 106.1930653  48.2458790
  50.7876105 105.8761189  44.8922533  49.8371736 105.8763051  44.7786905
  51.0908592 105.1293923  44.3758567  46.6780422  90.0819871  55.1505894
  47.5411884  89.7256676  55.3609219  46.1045833  89.7433766  55.8381298
  66.5228799 111.7121727  45.9568295  67.1607209 111.5928475  45.2531635
  66.4049642 112.6602571  46.0156247  63.3318505 111.6649155  45.8929820
  62.9937017 111.5490220  45.0050354  64.2008273 111.2640321  45.8730826
  59.1905321 113.5184632  41.8826711  58.6270186 113.4274569  41.1142998
  59.0757716 112.6984536  42.3629203  63.8138288 112.8184007  51.8516025
  63.8026929 112.4236805  50.9796529  63.9758928 112.0850080  52.4449797
  56.7369753 115.0135823  44.7210931  57.5291045 114.6726648  44.3057230
  56.9766403 115.1230798  45.6413084  64.7704880 117.1855600  37.1941175
  64.1192859 117.7709680  36.8075189  65.5649242 117.7161794  37.2536213
  58.6960507 114.2744737  37.5928310  59.4691383 113.7273724  37.4541186
  59.0485906 115.1388986  37.8042771  60.5345549 115.6021119  50.7995209
  60.2435415 116.5066750  50.6841875  61.1702534 115.6437647  51.5139279
  61.4601756 112.9797967  47.3896569  62.0565328 112.7553990  46.6753532
  61.5176728 112.2382713  47.9922017  61.0326785 110.4337403  35.2246760
  61.2852305 109.9118924  34.4630223  60.0951344 110.2703548  35.3273443
  66.0770067 109.4373181  43.0321503  66.8633157 109.0192604  42.6811920
  66.3408772 110.3419273  43.2003151  66.2480145 114.8746031  37.7310160
  65.6125978 114.9480658  38.4431064  65.9177551 115.4639630  37.0529239
  71.4778495 109.3748414  43.9354481  72.2103666 108.8047631  44.1692311
  70.7217850 108.9870015  44.3760987  60.7523073 112.3365509  37.4271135
  60.6359331 111.6610412  38.0952219  60.8625333 111.8497883  36.6103288
  63.0954614 111.7975656  41.1317824  62.7312821 111.2706277  41.8430745
  63.9521730 111.4074125  40.9584309  69.0003915 103.0869988  48.3949090
  68.6687240 103.9565399  48.1710305  68.4049528 102.7706272  49.0743120
  62.7360101 106.8265556  36.1279172  62.9034504 107.6945792  36.4949644
  62.5457270 106.9892837  35.2040462  65.4935434 115.2882534  47.7945003
  65.1936157 116.1907573  47.6860810  65.1486494 115.0214718  48.6466156
  58.9447916 111.7396331  43.8281707  58.0198412 111.6072545  44.0359399
  59.1932329 112.5190551  44.3251650  68.8932578 107.8065075  45.4742440
  67.9849456 107.7380483  45.1801201  68.8420174 108.2837020  46.3024266
  62.7149322 109.2823213  37.1125839  62.5948947 109.7280264  37.9511320
  62.0201910 109.6308531  36.5539377  56.3056727 111.3829605  44.6625496
  56.4349108 111.6364084  45.5764908  55.6254178 111.9757313  44.3430151
  62.9673444 109.2254720  53.4177337  62.1906778 109.7848640  53.4080202
  63.6064007 109.7111503  53.9392208  70.7594225 106.0081513  47.2520314
  70.1168605 106.3014046  46.6060109  70.2549153 105.8934433  48.0573511
  68.4134388 109.7544686  37.9406173  69.3252244 109.9872073  37.7653871
  67.9044035 110.3381730  37.3781252  61.2219816 112.0340174  52.9795304
  61.9634501 112.5725218  52.7030128  60.5156802 112.6606462  53.1366856
  66.6975156 114.1769314  51.5767466  67.1058512 113.7351725  50.8322098
  65.9752417 113.6021942  51.8301659  63.0506226 109.1141921  48.9501023
  63.8967421 109.5381334  49.0935672  62.9904864 108.4575545  49.6439586
  67.0203971 114.7370505  45.3319755  66.3912833 114.9016219  44.6295823
  66.6329633 115.1512114  46.1030719  70.8993202 115.6724943  42.6864119
  70.2144241 116.0523844  42.1361152  70.9837052 116.2820269  43.4196066
  66.2005671 106.7746289  50.6082196  65.9566603 107.5288350  50.0716472
  66.4765602 107.1531637  51.4429444  68.1544134 113.3184902  49.2859462
  68.3661029 113.9616661  48.6093843  68.1073882 112.4847218  48.8181392
  65.7570363 105.9302722  46.1896034  64.8954842 106.2283976  46.4812772
  65.7832798 106.1473121  45.2577067  62.5731932 114.4744913  42.5969840
  63.0370278 114.7532616  41.8074462  62.3088731 113.5728357  42.4142931
  59.4656013 114.0216394  45.5349603  60.0357371 114.4503663  44.8967088
  60.0564125 113.7398979  46.2333789  61.5100818 110.5968065  39.4059405
  62.2124862 111.0489109  39.8733331  61.1781447 109.9551884  40.0339298
  59.9581180 109.1879822  53.7810614  59.3279841 109.8696103  54.0146011
  59.8517268 109.0762903  52.8363753  55.2526152 108.8551618  44.7076539
  54.4625206 109.1109146  44.2316649  55.7437400 109.6699956  44.8128579
  69.2689962 116.1956857  47.4581819  70.0907406 115.7937044  47.1764501
  69.2652365 116.0925091  48.4097935  57.2040898 109.2196197  41.6660015
  56.4072061 109.3314891  42.1843511  56.9766490 109.5582849  40.8000906
  63.0346565 115.7440900  49.6142530  63.0990998 116.2061308  50.4500702
  62.3257489 115.1138265  49.7424840  53.5363855 109.1082108  47.1391529
  53.7871894 109.9929118  47.4049105  54.0723404 108.9286710  46.3666621
  77.3595955 112.5395605  43.8066791  76.6059663 111.9703004  43.6510795
  77.4943496 112.5058270  44.7537426  62.7494583 117.4109008  39.4821510
  62.6140258 118.2560543  39.9106358  63.2904396 117.6128285  38.7187444
  59.2361923 103.4900588  56.1435865  58.8428868 102.9366786  56.8183510
  60.0528063 103.8011166  56.5342383  56.2023980 114.9284446  40.0549435
  56.7148501 115.7227696  40.2055000  56.8546693 114.2310736  39.9883037
  58.0118865 118.0450202  42.1372189  58.1885494 118.9668167  41.9493172
  58.8075699 117.7308621  42.5666568  62.1529884 104.9058467  53.7356122
  62.8939597 105.5065620  53.6560585  62.3847807 104.1636104  53.1774165
  57.2971222 110.0914834  52.0134352  57.1824737 109.1900091  52.3141451
  56.4415739 110.3378531  51.6619168  64.3763059 118.0332574  53.6121852
  63.9326914 117.2468953  53.2942757  65.0380273 118.2211725  52.9465743
  66.4744298 118.3135374  51.6403254  66.4562773 119.1344255  51.1483523
  67.3964218 118.1889449  51.8653395  62.9317352 115.8279504  52.4826762
  63.4645688 115.0667792  52.2526070  62.4031433 115.5353155  53.2250916
  66.0987047 100.9339570  48.0120404  65.7551316 101.8241211  47.9359514
  66.4666009 100.7441227  47.1489989  54.1672897 113.2573100  40.8309006
  55.0048119 113.6670108  40.6142714  54.3451165 112.3172542  40.8009200
  66.0637329 110.9248181  36.5192839  65.5483953 111.6952785  36.7581226
  65.7914638 110.2513317  37.1425900  63.6484440 105.7697882  41.5778077
  62.7926037 105.3804732  41.3983716  64.0611392 105.8489842  40.7177863
  65.1783587 103.3044225  45.9769637  64.6748383 103.2674360  45.1637442
  65.4714194 104.2136968  46.0366294  61.4226473 103.3882955  44.9835819
  62.2879470 103.1925763  44.6241708  61.4903982 103.1593306  45.9105175
  71.0371604 113.6780535  38.4546012  70.2601046 113.3391695  38.0101174
  71.7163084 113.6833159  37.7800977  65.8523633 108.7975273  38.3452620
  65.5473768 109.1121422  39.1962763  66.8054075 108.8756693  38.3879953
  64.2970064 114.9565496  39.9945574  63.7691426 114.2218256  39.6818811
  63.7957567 115.7340173  39.7485542  69.2762910 113.1514517  45.1112620
  68.6186585 113.8413778  45.1992749  70.0803310 113.5410949  45.4546607
  59.0288792 105.6185162  42.3552186  59.6032544 105.3960344  41.6225378
  59.6159774 105.6873857  43.1080787  68.0868369 111.5058889  43.1616562
  68.6000251 112.1388881  43.6638272  68.7369593 110.9060085  42.7959922
  59.3558379 107.6489623  36.3748071  58.5195691 107.9864310  36.6957346
  59.2163149 107.5138603  35.4375208  61.3311460 102.4926411  41.0827255
  60.6775872 102.1775429  40.4583870  61.2891934 101.8702152  41.8087078
  62.4422665 112.7745706  32.9980547  61.5349726 112.5434960  33.1971696
  62.9393697 111.9783326  33.1854529  64.5649200 108.9808345  45.4074903
  63.6471761 109.2023292  45.2496591  64.9809344 109.0554655  44.5486610
  65.3484248 110.3799761  40.5377583  66.0956067 110.8921158  40.2284705
  65.6175837 110.0583813  41.3981976  63.6210898 112.8758301  37.5204537
  62.7122117 112.5917334  37.6177007  63.6505982 113.2957380  36.6607844
  68.8530165 116.4864891  41.2895705  68.3992493 115.6455801  41.3460895
  68.2224132 117.1226289  41.6270485  67.7963085 107.4156877  42.5196372
  67.0585842 106.9034263  42.8506615  68.0489859 106.9757258  41.7079649
  67.2963105 118.3241387  42.2245523  67.5886079 118.8846445  41.5057888
  67.8061725 118.6169948  42.9798682  67.8974712 100.1933129  43.1138141
  68.2033589  99.3330492  42.8264056  68.6227317 100.7850749  42.9137135
  54.1899068 110.5963815  41.5019739  53.9923468 110.0033176  40.7770806
  53.6345732 110.2916026  42.2195678  62.1695792 110.4886922  43.6214332
  62.2244402 109.5360758  43.5456809  61.3586994 110.6446361  44.1055631
  63.3186986 114.4167045  34.8592616  62.8806416 113.7002904  34.3998253
  64.0597427 114.6443160  34.2977707  60.1088152 109.1063982  41.3804711
  59.2956018 109.4058152  41.7869903  60.6047146 108.7119670  42.0979194
  62.2596730 119.1021739  43.3138976  62.2172909 119.3282585  42.3847508
  63.1759429 118.8685113  43.4624777  65.7062364 109.5705806  50.2119605
  66.0611751 109.7977279  51.0714071  66.3534495 109.9024183  49.5896861
  71.4360101 112.6924242  40.9168934  71.2977999 112.8825838  39.9890123
  71.0796319 113.4543625  41.3736985  59.6002227 106.6782337  46.9965946
  60.2401606 106.5371096  46.2988910  58.7679757 106.3916851  46.6204548
  71.4629480 114.7600769  45.9280206  71.8965987 114.6676058  46.7763260
  72.1761061 114.7358269  45.2900222  60.3762531 115.9784768  43.1100939
  61.1703129 115.4835088  42.9083514  59.6654223 115.4502631  42.7468644
  65.1957375 118.3602863  47.4613306  65.2494397 118.9293799  48.2291022
  64.3272156 118.5304748  47.0967343  56.6845294 110.1227849  39.1860691
  55.7542882 110.0612305  39.4030654  56.7802766 109.6003802  38.3897333
  56.6030843 106.6482662  41.7738933  56.8637660 107.5627995  41.6648094
  57.4248015 106.1807105  41.9235546  58.0755768 108.0620419  48.9437758
  58.7478822 107.8537781  48.2950407  57.2485555 107.8642505  48.5042990
  72.3245030 114.8024470  48.4613091  72.5180920 115.7070280  48.7072366
  72.2245648 114.3431889  49.2951676  63.9781341 104.6882360  50.9603418
  63.3309256 105.3872310  50.8667895  64.7482356 105.1218504  51.3279667
  67.3860138 114.9531212  54.0353972  67.2345645 114.7241764  53.1184055
  67.3764818 115.9101814  54.0485317  64.1545475 112.5263125  49.0200238
  65.0837535 112.6774285  48.8469206  63.7336505 112.6147146  48.1648885
  62.9533807 116.5513790  46.7898776  62.8144892 116.1832574  47.6624714
  62.1648403 117.0661429  46.6182734  64.5039022 115.9295392  44.1787614
  64.1688854 115.8896162  45.0745264  64.0042967 115.2640108  43.7058024
  58.4783266 111.3363022  49.7040195  58.3403064 110.6043261  50.3051734
  59.3888189 111.2471922  49.4224383  67.4398213 113.2751427  34.4524673
  66.8227384 112.5498255  34.3557726  66.9714702 114.0360787  34.1091748
  61.1065566 111.0482982  49.1923874  61.8165185 110.4076174  49.1510493
  61.0634875 111.2995876  50.1150055  69.0952345 117.9850335  52.1130454
  69.0364891 117.3009555  51.4461037  69.4971863 118.7269325  51.6611080
  59.8194500 108.0348200  51.0119514  59.2831857 107.5838938  51.6641110
  59.2311209 108.1694108  50.2689978  59.2296759 107.4936851  33.5745978
  58.3526226 107.3725652  33.2108224  59.7054512 106.7022929  33.3224866
  69.0969752 115.9489919  50.3444433  68.2096531 115.6115841  50.4670832
  69.6668303 115.2172950  50.5813199  50.7498899 112.2814011  43.6687485
  51.4369939 111.9675741  43.0808500  50.5947028 113.1855375  43.3954736
  55.5533622 107.1704207  48.0972508  55.4691810 106.5629877  47.3622918
  54.7316328 107.6613226  48.0982005  62.4160685 119.8463141  40.8208498
  61.6328207 120.3884821  40.9146723  63.1153431 120.3637121  41.2202739
  65.7257335 105.6557771  43.4642703  66.2226035 104.9027733  43.1443774
  64.9544317 105.6922087  42.8985913  73.5787093 111.3598136  45.1060995
  73.5676969 112.2422852  44.7354928  72.7104472 111.0069687  44.9115532
  65.0869589 120.5078205  49.4663835  65.7997561 121.1425670  49.3939737
  64.5959618 120.6042071  48.6503837  66.8087116 114.4129458  41.0381127
  65.8743395 114.5330920  40.8685831  66.9863785 113.5101925  40.7741137
  62.3092304 107.7975154  43.1914388  61.9390092 107.2446194  43.8795294
  62.8051397 107.1933287  42.6389388  70.1959668 110.2546777  41.5731161
  70.6620120 111.0874769  41.4991464  70.6467168 109.7891759  42.2776419
  60.1381503 118.2572649  50.2869406  60.8390962 118.8909132  50.4398800
  59.6676618 118.5987380  49.5265045  68.2635899 116.5990599  38.5717313
  68.5395743 116.4847193  39.4811187  67.3940397 116.2008083  38.5329486
  68.1676330 102.6227364  45.6122062  67.2539410 102.8531591  45.7804269
  68.5969432 102.7065808  46.4636095  67.9382789 110.8117256  48.1121956
  67.2854239 111.0593164  47.4574409  68.3163169 109.9981394  47.7784434
  64.8989963 120.8476949  42.2150127  65.0812357 120.0298605  42.6777879
  65.7222949 121.0644642  41.7775017  65.2332128 119.7745135  39.4765175
  65.7619895 119.2637589  38.8635337  65.4960348 119.4587665  40.3410708
  63.9870362 111.5537067  54.5987993  63.3110999 111.4531197  55.2690369
  64.8097996 111.3976281  55.0623991  55.7349221 117.7909004  47.2200509
  56.3202658 117.0452692  47.3528413  55.5374059 118.1012961  48.1037173
  50.3266876 110.3614604  45.9404952  50.3650975 109.8278195  46.7342070
  49.8207168 109.8349810  45.3215929  57.7057638 105.2079145  49.4367494
  57.7698964 106.0693975  49.0244892  57.6424758 104.5953146  48.7039853
  57.1809910 107.2802277  53.0840528  57.8081949 106.8979354  53.6978053
  56.3237829 107.0616479  53.4496221  67.5804019 117.6865252  54.6894264
  68.1243923 118.2995210  54.1949219  66.9990864 118.2444831  55.2061277
  53.9575453 109.0878706  39.0158883  54.2528894 108.1789385  38.9625937
  53.0563489 109.0666446  38.6939886  65.8661532 120.8085970  45.8209292
  65.7412671 120.0075710  45.3120237  66.5240623 121.3032164  45.3323262
  57.4869700 107.1634703  44.9986432  56.7656286 107.7770670  44.8593905
  58.2762956 107.6992468  44.9203078  67.9296440 118.6094990  47.4488842
  66.9826776 118.4900342  47.3767168  68.2779213 117.7217488  47.5315103
  60.2896014 104.4989129  51.2727084  60.8130416 104.7451426  52.0353393
  60.0708347 105.3309164  50.8530221  55.6863295 106.7692804  39.1398208
  55.3576001 105.8890183  38.9573314  56.0402665 106.7140473  40.0274598
  64.9342874 118.4047707  43.6493194  64.7867836 117.4764414  43.8300764
  65.7596367 118.4267797  43.1650269  58.8005118 107.0565774  39.5073686
  59.1401190 107.5851695  38.7852294  59.2477238 107.3946180  40.2832253
  68.5376995 119.2276265  44.7358067  69.4623543 119.0219127  44.5982518
  68.3692299 118.9792666  45.6447408  61.4948559 105.4402824  48.9576754
  61.1545379 104.6410637  49.3597434  60.7887565 105.7404535  48.3853587
  62.1465031 102.5252137  47.4104077  62.9691100 102.0512615  47.2882967
  62.3903094 103.3042621  47.9102763  60.7873265 105.5540395  37.7066979
  61.5081628 105.9321648  37.2030696  60.1638569 106.2729272  37.8101957
  64.9304388 106.2585544  38.6425311  65.1468002 107.1410182  38.3414139
  64.4498455 105.8671758  37.9130953  59.6703609 109.2171257  45.2196056
  59.5248190 109.5311560  46.1120337  59.1928813 109.8356158  44.6666954
  61.5299992 106.2073805  45.2676945  61.5161561 105.3114899  44.9309243
  62.2472420 106.2144469  45.9015231  63.3826123 106.6411146  47.3130073
  63.1243901 107.5628216  47.3114403  62.8511163 106.2441580  48.0030537
  68.3272312 119.7461933  40.0920158  68.5009189 119.1808355  39.3394011
  68.8201203 120.5462828  39.9099648  54.1449271 111.7576602  48.1583717
  53.6002740 112.5336410  48.2903991  55.0228621 112.1047406  48.0002838
  60.9336888 105.0888186  40.5364515  61.0552799 104.1604832  40.7355403
  60.6438931 105.1026872  39.6242831  63.8028079 102.7743096  43.6731235
  63.8249775 102.8382429  42.7183215  64.2196138 101.9347605  43.8671741
  74.1811703 112.5098356  41.7110458  74.6242849 111.7605681  41.3129581
  73.3038213 112.5008492  41.3284190  69.3147484 119.0628697  37.1917056
  70.0098389 119.6835390  37.4104371  69.6570634 118.2124048  37.4669434
  54.9315293 110.8846498  51.0513874  54.1897029 111.0329133  51.6378504
  54.6108038 111.1454764  50.1880623  71.2138907 116.5128403  38.7204387
  71.7390231 116.8515675  37.9953707  71.1261260 115.5775418  38.5367522
  62.8758956 120.4262476  50.8494264  63.1846082 120.1811623  51.7216963
  63.6734438 120.6309115  50.3613134  60.3453440 118.1238395  45.1521942
  59.7233449 117.4609100  44.8524170  61.0158307 118.1499527  44.4695590
  53.5780512 116.6898253  44.0413202  52.7412420 116.2620428  43.8597203
  53.5504158 116.8830697  44.9783993  60.4177968 106.6020183  54.7454448
  60.4666123 107.4782306  54.3632218  60.9600482 106.0597576  54.1726091
  70.9032813 117.1461306  54.0255585  70.1128357 117.1285445  53.4860085
  70.6666168 117.6849600  54.7804622  71.0230688 113.9953773  51.3388314
  71.0728693 113.8303780  52.2803836  70.9144612 113.1281032  50.9486194
  59.9066947 116.6742318  38.6280403  60.0555067 117.3577783  37.9747075
  60.7133391 116.6547408  39.1429858  68.3134451 109.9784701  52.6547620
  69.2144314 109.8391166  52.3631618  68.3882425 110.1439156  53.5945798
  62.6477256 107.3551555  51.5000807  61.7780566 107.6485121  51.2283395
  62.8836737 107.9392000  52.2208070  72.5248885 116.4150714  51.5830335
  72.2333694 116.7780695  52.4193796  71.9121017 115.7017722  51.4043667
  73.7244568 113.9803594  44.1032905  74.5591459 114.4193398  44.2670466
  73.8603696 113.5042247  43.2841151  70.7736073 111.5383329  50.0510393
  71.2490195 111.7310975  49.2429245  69.8501639 111.5942515  49.8053777
  57.6619580 112.7007496  39.6341471  57.4165622 111.7969826  39.8321682
  57.8315495 112.7024646  38.6920949  65.3516290 103.5731172  49.0166227
  65.8698234 104.3092199  48.6912716  64.9971423 103.8795166  49.8512986
  56.9315228 108.4335854  37.1327633  56.2384473 108.5080209  36.4767669
  56.6866980 107.6696197  37.6549150  65.6028884  99.9931455  44.5367124
  65.8830638  99.3254644  45.1627550  66.3879491 100.1860551  44.0241788
  63.4062353 119.1690449  36.0992150  62.8336320 119.7880636  35.6462622
  63.9795146 119.7189810  36.6332072  69.4737742 108.4149089  48.2838699
  70.4255165 108.5147187  48.3050923  69.3041193 107.6227357  48.7936783
  67.4952122 105.5004672  48.4698100  66.9002054 105.7809685  47.7744588
  67.2101819 105.9898573  49.2414841  66.6259612 119.4527599  37.2300732
  67.5590286 119.3873161  37.4333608  66.5382825 120.2883866  36.7715265
  69.2547629 118.7693469  34.1904680  69.1761261 118.4353333  35.0840438
  70.0757296 119.2615237  34.1896152  71.9525820 111.6355209  47.3980998
  71.9202140 110.6971209  47.5840682  72.5626444 111.7139245  46.6646823
  63.7909151 110.5051262  33.4408202  64.7368256 110.3757470  33.5096621
  63.4123396 109.7665923  33.9177631  72.1020309 108.4266252  47.4439282
  71.5859357 107.6424709  47.2569210  72.9860257 108.0984969  47.6085801
  69.7631036 102.1707268  43.4035094  69.5655857 101.8622356  44.2878426
  70.3730741 102.8968906  43.5333024  77.7702370 112.6971215  46.5387035
  78.5005759 112.4356504  47.0994739  77.1609316 111.9599937  46.5789103
  75.8517667 110.8379078  47.1361486  75.1250831 110.7035043  46.5277978
  75.4364954 111.1455907  47.9418204  63.6747844 114.5569008  54.9008859
  64.5950853 114.7347607  55.0948906  63.6397427 113.6125053  54.7488559
  61.9752068 108.4301238  33.3763088  61.0683524 108.1334351  33.4525801
  62.2528049 108.1331056  32.5097374  52.8930009 109.7507601  43.8262134
  52.5732793 108.8972910  43.5336508  52.3463437 109.9656179  44.5820101
  56.6709916 112.4670042  47.5431641  56.8895926 113.3987150  47.5619674
  57.0835690 112.1078017  48.3286444  63.5914134 102.9738128  39.5307329
  62.7814862 102.6285213  39.9062575  64.2798551 102.6645671  40.1194941
  65.5204682 102.0516174  41.1531626  66.0735721 102.4711628  41.8121649
  65.7574769 101.1251923  41.1954582  61.5437782 108.0403248  56.9334390
  61.4434508 108.9897605  56.8646481  61.3259324 107.7121487  56.0610460
  60.7450853 105.2888173  33.5175067  61.6070017 105.6143071  33.7770884
  60.9301197 104.5019669  33.0048133  52.7618269 113.3710513  45.7955256
  52.0681740 112.9564466  45.2825210  53.5091260 113.4131049  45.1988675
  68.8983489 104.1616700  40.6610290  68.3182158 104.8201504  40.2788342
  68.6319422 103.3394044  40.2497707  67.3487056 103.5621757  42.8631610
  67.8486834 103.6738292  42.0545929  67.9922664 103.2582810  43.5032419
  61.4069052 111.4700387  55.7499451  60.9236133 112.2700747  55.9563340
  61.4929991 111.4808332  54.7966895  54.6755011 113.3028767  43.6721271
  54.6525699 113.4016454  42.7203154  54.9855648 114.1493917  43.9938437
  57.3342389 115.3604922  47.7867885  58.2885643 115.3288864  47.7197817
  57.1354913 114.8995545  48.6018111  57.9241771 113.9306038  50.3538683
  58.7434660 114.4250116  50.3773520  58.1978579 113.0138006  50.3256250
  67.6808367 106.3216790  39.7166638  66.7934222 106.6066441  39.4986833
  68.0962356 106.1610553  38.8693915  71.0322904 106.3463311  43.4320977
  71.8083294 106.8359763  43.7045594  70.3071038 106.7721365  43.8892847
  73.4695462 107.0590930  44.4894918  74.0639953 106.8186666  43.7788226
  73.5422046 106.3398061  45.1168454  66.8251581 116.0861465  33.8114658
  67.5287431 116.2911467  34.4272314  66.1014230 116.6538227  34.0763742
  67.6549391 111.8371326  39.9316928  67.5984593 112.2939877  39.0924561
  68.2077734 111.0762011  39.7539771  71.4654197 107.6261058  40.7567048
  71.2091131 107.2257693  41.5875256  70.8407065 108.3404852  40.6317187
  75.7766535 110.3657131  43.2638339  75.2166093 110.4350320  44.0369901
  75.1710038 110.1898116  42.5437835  68.7338278 116.5243994  35.8613118
  69.5683882 116.0925192  35.6790593  68.5722621 116.3526008  36.7890013
  68.3884170 113.0276107  37.2269458  68.3332974 112.8620379  36.2857902
  67.7630226 113.7352140  37.3831647  53.1776685 108.2644172  51.0530880
  53.8235549 107.7543126  51.5418105  52.9693837 109.0012853  51.6274305
  65.7030078 115.3325019  56.5523020  66.5721237 115.5065671  56.1909655
  65.2236829 116.1519436  56.4298750  61.6980296 102.5284216  36.8054776
  61.6858966 103.4726056  36.9623047  62.5903718 102.3454362  36.5114237
  65.5132415  99.1226993  41.0600713  64.7464811  98.5685480  41.2057395
  65.9243120  99.1948862  41.9214864  57.5174176 105.4111789  55.1505894
  58.3805638 105.0548593  55.3609219  56.9439587 105.0725683  55.8381298
  76.9163822 124.7665099  43.0321503  77.7026911 124.3484522  42.6811920
  77.1802526 125.6711191  43.2003151  79.8397669 118.4161906  48.3949090
  79.5080994 119.2857317  48.1710305  79.2443283 118.0998190  49.0743120
  73.5753856 122.1557473  36.1279172  73.7428258 123.0237710  36.4949644
  73.3851025 122.3184755  35.2040462  79.7326333 123.1356992  45.4742440
  78.8243210 123.0672401  45.1801201  79.6813928 123.6128937  46.3024266
  81.5987979 121.3373431  47.2520314  80.9562359 121.6305964  46.6060109
  81.0942908 121.2226351  48.0573511  73.8899980 124.4433839  48.9501023
  74.7361176 124.8673252  49.0935672  73.8298618 123.7867463  49.6439586
  77.0399426 122.1038207  50.6082196  76.7960358 122.8580267  50.0716472
  77.3159356 122.4823554  51.4429444  76.5964117 121.2594640  46.1896034
  75.7348597 121.5575893  46.4812772  76.6226552 121.4765039  45.2577067
  70.0755677 118.8192505  56.1435865  69.6822623 118.2658704  56.8183510
  70.8921818 119.1303084  56.5342383  72.9923638 120.2350384  53.7356122
  73.7333352 120.8357538  53.6560585  73.2241561 119.4928022  53.1774165
  76.9380801 116.2631487  48.0120404  76.5945071 117.1533129  47.9359514
  77.3059764 116.0733145  47.1489989  74.4878195 121.0989799  41.5778077
  73.6319791 120.7096650  41.3983716  74.9005147 121.1781760  40.7177863
  76.0177342 118.6336142  45.9769637  75.5142137 118.5966278  45.1637442
  76.3107948 119.5428885  46.0366294  72.2620227 118.7174872  44.9835819
  73.1273224 118.5217681  44.6241708  72.3297736 118.4885224  45.9105175
  76.6917387 124.1267191  38.3452620  76.3867523 124.4413340  39.1962763
  77.6447829 124.2048610  38.3879953  69.8682547 120.9477080  42.3552186
  70.4426298 120.7252262  41.6225378  70.4553529 121.0165775  43.1080787
  70.1952134 122.9781541  36.3748071  69.3589446 123.3156228  36.6957346
  70.0556903 122.8430521  35.4375208  72.1705214 117.8218329  41.0827255
  71.5169627 117.5067346  40.4583870  72.1285688 117.1994069  41.8087078
  75.4042955 124.3100263  45.4074903  74.4865516 124.5315210  45.2496591
  75.8203098 124.3846573  44.5486610  78.6356839 122.7448795  42.5196372
  77.8979596 122.2326181  42.8506615  78.8883613 122.3049176  41.7079649
  78.7368467 115.5225047  43.1138141  79.0427344 114.6622410  42.8264056
  79.4621072 116.1142667  42.9137135  76.5456118 124.8997724  50.2119605
  76.9005506 125.1269197  51.0714071  77.1928249 125.2316101  49.5896861
  70.4395981 122.0074255  46.9965946  71.0795361 121.8663014  46.2988910
  69.6073512 121.7208768  46.6204548  74.8175095 120.0174278  50.9603418
  74.1703010 120.7164228  50.8667895  75.5876110 120.4510422  51.3279667
  70.6588255 123.3640117  51.0119514  70.1225612 122.9130856  51.6641110
  70.0704963 123.4986026  50.2689978  70.0690514 122.8228769  33.5745978
  69.1919980 122.7017569  33.2108224  70.5448267 122.0314847  33.3224866
  76.5651090 120.9849688  43.4642703  77.0619790 120.2319651  43.1443774
  75.7938071 121.0214005  42.8985913  73.1486059 123.1267071  43.1914388
  72.7783846 122.5738112  43.8795294  73.6445151 122.5225205  42.6389388
  79.0070085 117.9519282  45.6122062  78.0933165 118.1823509  45.7804269
  79.4363186 118.0357726  46.4636095  68.5451392 120.5371062  49.4367494
  68.6092719 121.3985893  49.0244892  68.4818513 119.9245064  48.7039853
  68.0203665 122.6094195  53.0840528  68.6475704 122.2271272  53.6978053
  67.1631584 122.3908397  53.4496221  71.1289768 119.8281047  51.2727084
  71.6524170 120.0743343  52.0353393  70.9102101 120.6601082  50.8530221
  66.5257049 122.0984721  39.1398208  66.1969755 121.2182100  38.9573314
  66.8796420 122.0432390  40.0274598  69.6398872 122.3857691  39.5073686
  69.9794945 122.9143613  38.7852294  70.0870993 122.7238097  40.2832253
  72.3342313 120.7694742  48.9576754  71.9939134 119.9702555  49.3597434
  71.6281320 121.0696453  48.3853587  72.9858785 117.8544054  47.4104077
  73.8084854 117.3804533  47.2882967  73.2296849 118.6334538  47.9102763
  71.6267020 120.8832313  37.7066979  72.3475382 121.2613566  37.2030696
  71.0032324 121.6021190  37.8101957  75.7698142 121.5877462  38.6425311
  75.9861757 122.4702100  38.3414139  75.2892210 121.1963675  37.9130953
  72.3693747 121.5365723  45.2676945  72.3555315 120.6406816  44.9309243
  73.0866175 121.5436387  45.9015231  74.2219877 121.9703063  47.3130073
  73.9637655 122.8920134  47.3114403  73.6904918 121.5733498  48.0030537
  71.7730643 120.4180103  40.5364515  71.8946554 119.4896750  40.7355403
  71.4832685 120.4318789  39.6242831  74.6421833 118.1035014  43.6731235
  74.6643530 118.1674347  42.7183215  75.0589892 117.2639522  43.8671741
  71.2571722 121.9312101  54.7454448  71.3059878 122.8074224  54.3632218
  71.7994236 121.3889494  54.1726091  73.4871011 122.6843473  51.5000807
  72.6174320 122.9777039  51.2283395  73.7230491 123.2683918  52.2208070
  76.1910044 118.9023090  49.0166227  76.7091988 119.6384117  48.6912716
  75.8365177 119.2087083  49.8512986  76.4422639 115.3223373  44.5367124
  76.7224392 114.6546562  45.1627550  77.2273246 115.5152468  44.0241788
  78.3345876 120.8296590  48.4698100  77.7395809 121.1101602  47.7744588
  78.0495573 121.3190491  49.2414841  80.6024790 117.4999185  43.4035094
  80.4049611 117.1914273  44.2878426  81.2124496 118.2260824  43.5333024
  72.8145823 123.7593156  33.3763088  71.9077278 123.4626268  33.4525801
  73.0921804 123.4622974  32.5097374  74.4307889 118.3030045  39.5307329
  73.6208617 117.9577130  39.9062575  75.1192305 117.9937589  40.1194941
  76.3598437 117.3808092  41.1531626  76.9129475 117.8003546  41.8121649
  76.5968523 116.4543840  41.1954582  72.3831536 123.3695166  56.9334390
  72.2828263 124.3189523  56.8646481  72.1653078 123.0413405  56.0610460
  71.5844607 120.6180091  33.5175067  72.4463771 120.9434989  33.7770884
  71.7694952 119.8311587  33.0048133  79.7377244 119.4908617  40.6610290
  79.1575913 120.1493421  40.2788342  79.4713177 118.6685962  40.2497707
  78.1880810 118.8913675  42.8631610  78.6880589 119.0030210  42.0545929
  78.8316418 118.5874728  43.5032419  78.5202122 121.6508708  39.7166638
  77.6327977 121.9358358  39.4986833  78.9356111 121.4902471  38.8693915
  81.8716658 121.6755229  43.4320977  82.6477048 122.1651681  43.7045594
  81.1464792 122.1013283  43.8892847  72.5374050 117.8576134  36.8054776
  72.5252720 118.8017974  36.9623047  73.4297472 117.6746279  36.5114237
  76.3526170 114.4518910  41.0600713  75.5858566 113.8977397  41.2057395
  76.7636875 114.5240779  41.9214864  68.3567931 120.7403706  55.1505894
  69.2199392 120.3840511  55.3609219  67.7833342 120.4017601  55.8381298
   9.6169517  13.1786541  38.5761332   9.6058158  12.7839340  37.7041835
   9.7790156  12.4452614  39.1695103   6.3376778  15.9623653  37.5240516
   6.0466644  16.8669284  37.4087182   6.9733762  16.0040181  38.2384585
  11.2966663  15.6485069  34.5190309  10.9967386  16.5510107  34.4106117
  10.9517723  15.3817252  35.3711462  12.5006385  14.5371848  38.3012773
  12.9089741  14.0954259  37.5567405  11.7783646  13.9624476  38.5546965
  12.8235199  15.0973039  32.0565061  12.1944062  15.2618753  31.3541129
  12.4360861  15.5114648  32.8276025  16.7024431  16.0327477  29.4109425
  16.0175469  16.4126378  28.8606459  16.7868281  16.6422803  30.1441373
  13.9575363  13.6787436  36.0104769  14.1692258  14.3219196  35.3339150
  13.9105111  12.8449752  35.5426699  15.0721191  16.5559391  34.1827126
  15.8938635  16.1539578  33.9009808  15.0683594  16.4527625  35.1343242
   8.8377794  16.1043434  36.3387837   8.9022227  16.5663842  37.1746008
   8.1288718  15.4740799  36.4670146  23.1627184  12.8998140  30.5312098
  22.4090892  12.3305538  30.3756102  23.2974725  12.8660804  31.4782732
  10.1794288  18.3935108  40.3367159   9.7358142  17.6071487  40.0188063
  10.8411502  18.5814259  39.6711050   4.9381409  19.9230910  34.8627837
   5.4888835  19.7947973  34.0904831   4.0992885  20.2225799  34.5122730
  12.2775526  18.6737908  38.3648560  12.2594002  19.4946789  37.8728829
  13.1995446  18.5491984  38.5898701   8.7348581  16.1882038  39.2072069
   9.2676917  15.4270326  38.9771377   8.2062662  15.8955690  39.9496223
  15.0794139  13.5117051  31.8357927  14.4217814  14.2016312  31.9238056
  15.8834538  13.9013483  32.1791913  13.0994333  18.6843922  28.9490829
  13.3917308  19.2448979  28.2303195  13.6092954  18.9772483  29.7043989
  11.5093592   9.9308340  36.9364912  11.8642980  10.1579813  37.7959378
  12.1565724  10.2626717  36.3142167  17.2660709  15.1203303  32.6525512
  17.6997216  15.0278592  33.5008566  17.9792290  15.0960804  32.0145528
  10.9988604  18.7205397  34.1858613  11.0525626  19.2896334  34.9536329
  10.1303385  18.8907282  33.8212650  18.1276259  15.1627004  35.1858398
  18.3212149  16.0672814  35.4317673  18.0276877  14.7034423  36.0196983
  13.1891367  15.3133747  40.7599278  13.0376874  15.0844298  39.8429362
  13.1796047  16.2704348  40.7730623   9.9576704  12.8865659  35.7445545
  10.8868764  13.0376819  35.5714512   9.5367734  12.9749680  34.8894191
   8.7565035  16.9116324  33.5144082   8.6176121  16.5435108  34.3870021
   7.9679632  17.4263963  33.3428040  14.8983574  18.3452869  38.8375760
  14.8396120  17.6612089  38.1706343  15.3003092  19.0871859  38.3856386
   3.9174273  25.1614783  31.6309479   4.1570871  25.7933307  32.3088498
   3.0743469  24.8102823  31.9174838  14.9000981  16.3092453  37.0689740
  14.0127760  15.9718375  37.1916139  15.4699532  15.5775484  37.3058505
   8.4302135  20.9693905  34.0350983   8.3572306  21.7748877  34.5470288
   7.9879528  21.1685871  33.2099005  19.3818322  11.7200670  31.8306302
  19.3708198  12.6025386  31.4600235  18.5135701  11.3672221  31.6360839
  10.8900818  20.8680739  36.1909142  11.6028790  21.5028204  36.1185043
  10.3990847  20.9644605  35.3749144   5.9412732  18.6175183  37.0114713
   6.6422191  19.2511666  37.1644107   5.4707847  18.9589914  36.2510352
  13.7414018  11.1719790  34.8367263  13.0885468  11.4195698  34.1819716
  14.1194397  10.3583929  34.5029740  10.7021191  21.2079484  28.9395433
  10.8843586  20.3901140  29.4023186  11.5254177  21.4247176  28.5020323
   9.7901591  11.9139601  41.3233300   9.1142228  11.8133731  41.9935675
  10.6129224  11.7578815  41.7869297   1.5380450  18.1511538  33.9445815
   2.1233887  17.4055226  34.0773720   1.3405288  18.4615495  34.8282479
   8.5324373  23.2206529  35.5590916   9.0842682  23.3838150  36.3240001
   8.8730567  23.8110967  34.8870941  13.3835248  18.0467786  41.4139570
  13.9275152  18.6597745  40.9194525  12.8022093  18.6047365  41.9306583
  11.6692761  21.1688504  32.5454598  11.5443900  20.3678244  32.0365544
  12.3271852  21.6634698  32.0568568  13.7327669  18.9697525  34.1734148
  12.7858005  18.8502876  34.1012475  14.0810442  18.0820023  34.2560410
  10.7374102  18.7650241  30.3738501  10.5899065  17.8366948  30.5546071
  11.5627596  18.7870331  29.8895576  14.3408224  19.5878799  31.4603373
  15.2654772  19.3821661  31.3227824  14.1723528  19.3395201  32.3692715
   8.6790185  20.7865011  37.5739570   8.9877311  20.5414157  38.4462270
   9.4765667  20.9911649  37.0858441   8.7010797  22.9402920  29.8044947
   8.2615787  22.4479299  30.4977804   9.4518914  22.3975888  29.5637022
  16.7064042  17.5063841  40.7500892  15.9159586  17.4887979  40.2105391
  16.4697397  18.0452134  41.5049928  16.8261917  14.3556307  38.0633620
  16.8759922  14.1906314  39.0049143  16.7175841  13.4883566  37.6731501
  14.1165680  10.3387235  39.3792927  15.0175542  10.1993700  39.0876925
  14.1913654  10.5041690  40.3191104  18.3280114  16.7753248  38.3075642
  18.0364922  17.1383229  39.1439103  17.7152245  16.0620257  38.1288974
  19.5275796  14.3406128  30.8278212  20.3622688  14.7795932  30.9915772
  19.6634925  13.8644781  30.0086458  16.5767302  11.8985863  36.7755700
  17.0521424  12.0913509  35.9674551  15.6532868  11.9545049  36.5299083
  15.2768971   8.7751623  35.0084005  16.2286394   8.8749721  35.0296229
  15.1072422   7.9829892  35.5182090  17.7557049  11.9957743  34.1226305
  17.7233369  11.0573744  34.3085989  18.3657673  12.0741780  33.3892130
  17.9051538   8.7868786  34.1684588  17.3890586   8.0027243  33.9814517
  18.7891486   8.4587503  34.3331108  23.5733599  13.0573750  33.2632342
  24.3036987  12.7959038  33.8240045  22.9640544  12.3202472  33.3034410
  21.6548896  11.1981612  33.8606793  20.9282060  11.0637577  33.2523285
  21.2396183  11.5058441  34.6663511   9.4779072  14.9171542  41.6254166
  10.3982082  15.0950141  41.8194213   9.4428656  13.9727587  41.4733865
   4.6492973  22.1596392  31.7401832   4.5325357  23.1041825  31.6380522
   3.8285419  21.8569954  32.1287631  11.5061306  15.6927553  43.2768327
  12.3752466  15.8668206  42.9154962  11.0268058  16.5121970  43.1544056
   5.6747487  22.8124654  34.9557761   6.5774733  22.8448265  35.2724256
   5.4484857  21.8825105  34.9704096   7.4301089  21.5655641  31.6167839
   6.4796720  21.5657502  31.5032211   7.7333575  20.8188375  31.1003874
  23.1653782  27.4016179  32.6813602  23.8032192  27.2822927  31.9776942
  23.0474625  28.3497023  32.7401554  19.9743488  27.3543607  32.6175126
  19.6362000  27.2384672  31.7295661  20.8433257  26.9534772  32.5976132
  15.8330304  29.2079084  28.6072017  15.2695169  29.1169021  27.8388305
  15.7182699  28.3878988  29.0874510  20.4563271  28.5078459  38.5761332
  20.4451912  28.1131257  37.7041835  20.6183911  27.7744532  39.1695103
  13.3794736  30.7030275  31.4456238  14.1716028  30.3621100  31.0302537
  13.6191386  30.8125250  32.3658391  21.4129863  32.8750051  23.9186482
  20.7617843  33.4604132  23.5320496  22.2074226  33.4056246  23.9781520
  15.3385490  29.9639189  24.3173616  16.1116366  29.4168176  24.1786492
  15.6910889  30.8283438  24.5288078  17.1770533  31.2915571  37.5240516
  16.8860399  32.1961202  37.4087182  17.8127517  31.3332098  38.2384585
  18.1026739  28.6692419  34.1141875  18.6990312  28.4448442  33.3998838
  18.1601711  27.9277165  34.7167323  22.7195051  25.1267633  29.7566810
  23.5058140  24.7087056  29.4057227  22.9833755  26.0313725  29.9248458
  22.8905128  30.5640483  24.4555466  22.2550961  30.6375110  25.1676371
  22.5602534  31.1534082  23.7774546  28.1203478  25.0642866  30.6599788
  28.8528650  24.4942083  30.8937618  27.3642834  24.6764467  31.1006294
  17.3948057  28.0259961  24.1516441  17.2784315  27.3504864  24.8197526
  17.5050316  27.5392335  23.3348594  19.7379598  27.4870108  27.8563131
  19.3737805  26.9600729  28.5676052  20.5946713  27.0968577  27.6829616
  25.6428898  18.7764440  35.1194397  25.3112223  19.6459851  34.8955612
  25.0474512  18.4600724  35.7988427  22.1360418  30.9776986  34.5190309
  21.8361141  31.8802025  34.4106117  21.7911477  30.7109170  35.3711462
  15.5872899  27.4290783  30.5527014  14.6623396  27.2966997  30.7604706
  15.8357312  28.2085002  31.0496956  25.5357561  23.4959527  32.1987747
  24.6274439  23.4274935  31.9046508  25.4845157  23.9731471  33.0269572
  19.3574305  24.9717665  23.8371146  19.2373931  25.4174716  24.6756626
  18.6626894  25.3202983  23.2784684  12.9481710  27.0724057  31.3870803
  13.0774091  27.3258536  32.3010215  12.2679162  27.6651765  31.0675458
  17.1181197  37.7421307  27.4861277  17.0405227  38.6929132  27.5649758
  16.5142841  37.3967179  28.1436203  19.6098427  24.9149172  40.1422644
  18.8331761  25.4743092  40.1325509  20.2488990  25.4005955  40.6637514
  27.4019208  21.6975965  33.9765621  26.7593588  21.9908498  33.3305415
  26.8974136  21.5828885  34.7818817  25.0559372  25.4439138  24.6651480
  25.9677228  25.6766525  24.4899178  24.5469019  26.0276182  24.1026559
  17.8644800  27.7234625  39.7040611  18.6059484  28.2619669  39.4275435
  17.1581785  28.3500914  39.8612163  23.3400139  29.8663766  38.3012773
  23.7483495  29.4246176  37.5567405  22.6177401  29.2916393  38.5546965
  19.6931209  24.8036373  35.6746329  20.5392404  25.2275786  35.8180978
  19.6329847  24.1469997  36.3684893  23.6628954  30.4264957  32.0565061
  23.0337816  30.5910671  31.3541129  23.2754616  30.8406566  32.8276025
  27.5418186  31.3619394  29.4109425  26.8569224  31.7418296  28.8606459
  27.6262035  31.9714721  30.1441373  22.8430655  22.4640741  37.3327503
  22.5991586  23.2182802  36.7961779  23.1190585  22.8426089  38.1674750
  24.7969117  29.0079353  36.0104769  25.0086013  29.6511113  35.3339150
  24.7498866  28.1741670  35.5426699  22.3995346  21.6197174  32.9141341
  21.5379825  21.9178428  33.2058078  22.4257781  21.8367573  31.9822373
  19.2156916  30.1639365  29.3215147  19.6795261  30.4427068  28.5319769
  18.9513714  29.2622809  29.1388237  16.1080997  29.7110846  32.2594910
  16.6782354  30.1398115  31.6212394  16.6989109  29.4293431  32.9579095
  18.1525802  26.2862517  26.1304712  18.8549845  26.7383561  26.5978638
  17.8206430  25.6446336  26.7584605  16.6006163  24.8774274  40.5055921
  15.9704824  25.5590555  40.7391318  16.4942251  24.7657355  39.5609059
  11.8951136  24.5446070  31.4321845  11.1050190  24.8003598  30.9561956
  12.3862383  25.3594408  31.5373886  25.9114945  31.8851309  34.1827126
  26.7332389  31.4831496  33.9009808  25.9077348  31.7819543  35.1343242
  13.8465881  24.9090649  28.3905322  13.0497044  25.0209343  28.9088818
  13.6191473  25.2477301  27.5246212  19.6771549  31.4335352  36.3387837
  19.7415981  31.8955759  37.1746008  18.9682473  30.8032717  36.4670146
  10.1788839  24.7976560  33.8636836  10.4296877  25.6823570  34.1294412
  10.7148387  24.6181162  33.0911928  34.0020938  28.2290057  30.5312098
  33.2484647  27.6597455  30.3756102  34.1368480  28.1952722  31.4782732
  19.3919566  33.1003460  26.2066817  19.2565241  33.9454995  26.6351665
  19.9329379  33.3022737  25.4432751  15.8786906  19.1795040  42.8681172
  15.4853852  18.6261238  43.5428816  16.6953046  19.4905618  43.2587690
  12.8448964  30.6178898  26.7794742  13.3573484  31.4122148  26.9300307
  13.4971677  29.9205188  26.7128343  14.6543848  33.7344654  28.8617495
  14.8310477  34.6562619  28.6738479  15.4500682  33.4203073  29.2911875
  18.7954867  20.5952919  40.4601429  19.5364580  21.1960072  40.3805891
  19.0272790  19.8530556  39.9019471  13.9396205  25.7809286  38.7379658
  13.8249720  24.8794543  39.0386757  13.0840723  26.0272983  38.3864475
  21.0188043  33.7227026  40.3367159  20.5751897  32.9363405  40.0188063
  21.6805256  33.9106177  39.6711050  15.7775164  35.2522828  34.8627837
  16.3282589  35.1239891  34.0904831  14.9386640  35.5517717  34.5122730
  23.1169281  34.0029826  38.3648560  23.0987756  34.8238707  37.8728829
  24.0389201  33.8783901  38.5898701  19.5742335  31.5173956  39.2072069
  20.1070672  30.7562244  38.9771377  19.0456416  31.2247607  39.9496223
  22.7412030  16.6234022  34.7365710  22.3976299  17.5135663  34.6604821
  23.1090993  16.4335679  33.8735295  10.8097881  28.9467552  27.5554313
  11.6473103  29.3564560  27.3388020  10.9876148  28.0066994  27.5254506
  22.7062313  26.6142633  23.2438145  22.1908936  27.3847237  23.4826533
  22.4339621  25.9407769  23.8671207  20.2909424  21.4592333  28.3023384
  19.4351020  21.0699184  28.1229023  20.7036375  21.5384294  27.4423169
  21.8208570  18.9938677  32.7014944  21.3173366  18.9568812  31.8882749
  22.1139177  19.9031419  32.7611600  18.0651456  19.0777406  31.7081125
  18.9304453  18.8820215  31.3487015  18.1328965  18.8487758  32.6350482
  27.6796587  29.3674987  25.1791319  26.9026030  29.0286147  24.7346481
  28.3588068  29.3727610  24.5046284  22.4948616  24.4869725  25.0697927
  22.1898751  24.8015874  25.9208070  23.4479058  24.5651145  25.1125260
  20.9395048  30.6459948  26.7190881  20.4116409  29.9112708  26.4064118
  20.4382550  31.4234624  26.4730849  25.9187894  28.8408969  31.8357927
  25.2611568  29.5308230  31.9238056  26.7228293  29.2305400  32.1791913
  15.6713775  21.3079614  29.0797492  16.2457527  21.0854796  28.3470685
  16.2584758  21.3768309  29.8326093  24.7293353  27.1953341  29.8861869
  25.2425234  27.8283333  30.3883578  25.3794576  26.5954537  29.5205229
  17.9736443  18.1820863  27.8072562  17.3200855  17.8669880  27.1829176
  17.9316917  17.5596604  28.5332385  21.9915727  37.1737666  22.6422540
  21.3177426  37.4769362  23.2507498  22.3781549  37.9766746  22.2927997
  21.2074183  24.6702797  32.1320209  20.2896745  24.8917744  31.9741897
  21.6234327  24.7449107  31.2731917  21.9909231  26.0694212  27.2622889
  22.7381050  26.5815610  26.9530012  22.2600821  25.7478265  28.1227283
  20.2635881  28.5652753  24.2449844  19.3547101  28.2811786  24.3422313
  20.2930965  28.9851832  23.3853151  25.4955149  32.1759343  28.0141011
  25.0417476  31.3350253  28.0706202  24.8649115  32.8120741  28.3515791
  24.4388068  23.1051329  29.2441679  23.7010825  22.5928715  29.5751921
  24.6914842  22.6651710  28.4324956  23.9388088  34.0135839  28.9490829
  24.2311062  34.5740896  28.2303195  24.4486709  34.3064400  29.7043989
  24.5399696  15.8827581  29.8383448  24.8458572  15.0224944  29.5509363
  25.2652300  16.4745201  29.6382442  10.8324052  26.2858267  28.2265046
  10.6348452  25.6927628  27.5016113  10.2770716  25.9810477  28.9440985
  18.8120775  26.1781374  30.3459639  18.8669385  25.2255210  30.2702116
  18.0011977  26.3340813  30.8300938  19.9611969  30.1061497  21.5837922
  19.5231399  29.3897356  21.1243560  20.7022410  30.3337612  21.0223014
  16.7513135  24.7958434  28.1050018  15.9381001  25.0952604  28.5115210
  17.2472129  24.4014122  28.8224500  18.9021713  34.7916190  30.0384283
  18.8597892  35.0177037  29.1092815  19.8184412  34.5579565  30.1870084
  22.3487347  25.2600258  36.9364912  22.7036735  25.4871731  37.7959378
  22.9959478  25.5918635  36.3142167  28.0785084  28.3818694  27.6414241
  27.9402982  28.5720290  26.7135430  27.7221303  29.1438077  28.0982292
  16.2427210  22.3676789  33.7211253  16.8826589  22.2265548  33.0234216
  15.4104741  22.0811302  33.3449855  28.1054464  30.4495221  32.6525512
  28.5390970  30.3570510  33.5008566  28.8186044  30.4252721  32.0145528
  17.0187514  31.6679219  29.8346245  17.8128112  31.1729540  29.6328820
  16.3079206  31.1397083  29.4713951  21.8382358  34.0497315  34.1858613
  21.8919381  34.6188251  34.9536329  20.9697140  34.2199200  33.8212650
  13.3270277  25.8122301  25.9105998  12.3967866  25.7506757  26.1275960
  13.4227749  25.2898254  25.1142639  13.2455826  22.3377114  28.4984240
  13.5062644  23.2522447  28.3893400  14.0672999  21.8701557  28.6480853
  14.7180752  23.7514871  35.6683064  15.3903805  23.5432233  35.0195713
  13.8910538  23.5536957  35.2288297  28.9670013  30.4918922  35.1858398
  29.1605903  31.3964732  35.4317673  28.8670631  30.0326341  36.0196983
  20.6206324  20.3776812  37.6848725  19.9734239  21.0766762  37.5913202
  21.3907339  20.8112956  38.0524973  24.0285122  30.6425664  40.7599278
  23.8770628  30.4136216  39.8429362  24.0189801  31.5996266  40.7730623
  20.7970458  28.2157577  35.7445545  21.7262518  28.3668737  35.5714512
  20.3761488  28.3041598  34.8894191  19.5958790  32.2408241  33.5144082
  19.4569876  31.8727026  34.3870021  18.8073386  32.7555881  33.3428040
  20.1906942  37.3417338  24.8569619  20.3658698  36.8705381  25.6715242
  19.5039730  37.9683104  25.0850880  21.1464005  31.6189844  30.9032920
  20.8113838  31.5790614  31.7990570  20.6467951  30.9534560  30.4303330
  15.1208249  27.0257474  36.4285501  14.9828047  26.2937713  37.0297040
  16.0313173  26.9366374  36.1469689  24.0823197  28.9645879  21.1769980
  23.4652367  28.2392707  21.0803033  23.6139685  29.7255239  20.8337054
  17.7490550  26.7377434  35.9169181  18.4590168  26.0970626  35.8755799
  17.7059858  26.9890328  36.8395362  25.7377328  33.6744787  38.8375760
  25.6789875  32.9904007  38.1706343  26.1396847  34.4163777  38.3856386
  16.4619484  23.7242651  37.7364821  15.9256841  23.2733390  38.3886417
  15.8736192  23.8588560  36.9935285  14.7568027  40.4906701  31.6309479
  14.9964625  41.1225225  32.3088498  13.9137224  40.1394741  31.9174838
  25.7394736  31.6384371  37.0689740  24.8521514  31.3010293  37.1916139
  26.3093287  30.9067402  37.3058505   7.3923883  27.9708463  30.3932791
   8.0794923  27.6570193  29.8053807   7.2372011  28.8749827  30.1200043
  12.1958605  22.8598659  34.8217815  12.1116794  22.2524329  34.0868225
  11.3741311  23.3507677  34.8227311  19.2695889  36.2985823  34.0350983
  19.1966061  37.1040795  34.5470288  18.8273282  36.4977789  33.2099005
  19.0585669  35.5357593  27.5453805  18.2753191  36.0779273  27.6392029
  19.7578414  36.0531573  27.9448046  22.3682319  21.3452223  30.1888010
  22.8651018  20.5922185  29.8689080  21.5969300  21.3816539  29.6231219
  30.2212076  27.0492588  31.8306302  30.2101952  27.9317304  31.4600235
  29.3529456  26.6964139  31.6360839  21.7294573  36.1972657  36.1909142
  22.4422545  36.8320122  36.1185043  21.2384601  36.2936523  35.3749144
  23.4512099  30.1023910  27.7626433  22.5168378  30.2225372  27.5931138
  23.6288768  29.1996377  27.4986443  18.9517288  23.4869606  29.9159695
  18.5815075  22.9340646  30.6040600  19.4476380  22.8827739  29.3634695
  26.8384651  25.9441229  28.2976468  27.3045103  26.7769221  28.2236770
  27.2892151  25.4786211  29.0021726  16.7806486  33.9467101  37.0114713
  17.4815946  34.5803584  37.1644107  16.3101601  34.2881832  36.2510352
  24.9060882  32.2885050  25.2962620  25.1820726  32.1741645  26.2056494
  24.0365381  31.8902535  25.2574793  24.8101314  18.3121816  32.3367369
  23.8964393  18.5426043  32.5049576  25.2394415  18.3960260  33.1881401
  24.5807772  26.5011708  34.8367263  23.9279222  26.7487616  34.1819716
  24.9588152  25.6875846  34.5029740  21.5414946  36.5371401  28.9395433
  21.7237340  35.7193057  29.4023186  22.3647932  36.7539094  28.5020323
  21.8757111  35.4639586  26.2010482  22.4044878  34.9532041  25.5880644
  22.1385331  35.1482117  27.0656015  20.6295345  27.2431519  41.3233300
  19.9535982  27.1425648  41.9935675  21.4522979  27.0870733  41.7869297
  12.3774204  33.4803456  33.9445815  12.9627641  32.7347144  34.0773720
  12.1799043  33.7907412  34.8282479  15.2312859  36.5154703  28.9608258
  14.5623235  37.0000831  28.4772298  15.0925729  36.7623924  29.8751636
   6.9691859  26.0509056  32.6650258   7.0075958  25.5172647  33.4587377
   6.4632152  25.5244261  32.0461236  19.3718128  38.5498447  35.5590916
  19.9236436  38.7130068  36.3240001  19.7124321  39.1402884  34.8870941
  14.3482621  20.8973596  36.1612801  14.4123948  21.7588427  35.7490198
  14.2849741  20.2847598  35.4285159  13.8234894  22.9696729  39.8085835
  14.4506933  22.5873806  40.4223359  12.9662813  22.7510931  40.1741528
  24.2229002  33.3759704  41.4139570  24.7668906  33.9889662  40.9194525
  23.6415847  33.9339283  41.9306583  22.5086515  36.4980422  32.5454598
  22.3837655  35.6970162  32.0365544  23.1665606  36.9926615  32.0568568
  14.1294683  22.8529155  31.7231738  13.4081269  23.4665122  31.5839212
  14.9187939  23.3886919  31.6448384  24.5721424  34.2989442  34.1734148
  23.6251759  34.1794793  34.1012475  24.9204197  33.4111940  34.2560410
  16.9320997  20.1883581  37.9972390  17.4555399  20.4345878  38.7598700
  16.7133330  21.0203616  37.5775528  21.5767857  34.0942158  30.3738501
  21.4292819  33.1658866  30.5546071  22.4021350  34.1162249  29.8895576
  15.4430101  22.7460226  26.2318993  15.7826174  23.2746147  25.5097601
  15.8902222  23.0840632  27.0077559  25.1801979  34.9170717  31.4603373
  26.1048526  34.7113578  31.3227824  25.0117282  34.6687118  32.3692715
  18.1373542  21.1297276  35.6822061  17.7970362  20.3305089  36.0842741
  17.4312548  21.4298987  35.1098894  18.7890014  18.2146589  34.1349384
  19.6116083  17.7407067  34.0128274  19.0328077  18.9937072  34.6348070
  21.5729371  21.9479996  25.3670618  21.7892986  22.8304634  25.0659446
  21.0923438  21.5566209  24.6376260  16.3128593  24.9065709  31.9441362
  16.1673173  25.2206012  32.8365644  15.8353796  25.5250610  31.3912261
  18.1724976  21.8968257  31.9922252  18.1586544  21.0009351  31.6554550
  18.8897404  21.9038921  32.6260538  20.0251106  22.3305597  34.0375379
  19.7668884  23.2522668  34.0359710  19.4936147  21.9336032  34.7275843
  24.9697295  35.4356385  26.8165465  25.1434173  34.8702807  26.0639317
  25.4626186  36.2357279  26.6344955  10.7874255  27.4471054  34.8829024
  10.2427723  28.2230862  35.0149298  11.6653605  27.7941858  34.7248145
  17.5761871  20.7782638  27.2609822  17.6977783  19.8499284  27.4600710
  17.2863914  20.7921324  26.3488137  20.4453062  18.4637548  30.3976542
  20.4674759  18.5276881  29.4428521  20.8621121  17.6242057  30.5917048
  30.8236686  28.1992808  28.4355764  31.2667832  27.4500133  28.0374888
  29.9463196  28.1902944  28.0529496  25.9572467  34.7523149  23.9162363
  26.6523372  35.3729842  24.1349678  26.2995618  33.9018500  24.1914741
  11.5740277  26.5740950  37.7759180  10.8322013  26.7223585  38.3623811
  11.2533021  26.8349216  36.9125930  27.8563891  32.2022855  25.4449694
  28.3815215  32.5410127  24.7199014  27.7686243  31.2669870  25.2612828
  19.5183939  36.1156928  37.5739570  19.8271066  35.8706075  38.4462270
  20.3159421  36.3203567  37.0858441  19.5404551  38.2694838  29.8044947
  19.1009542  37.7771217  30.4977804  20.2912668  37.7267805  29.5637022
  12.0196890  34.4606379  29.8069575  12.8454910  34.1610151  29.4268219
  11.6690942  33.6914001  30.2559364  16.9878424  33.8132847  31.8767249
  16.3658433  33.1503552  31.5769477  17.6583290  33.8393979  31.1940896
  10.2205495  32.3792705  30.7658509   9.3837404  31.9514879  30.5842510
  10.1929141  32.5725148  31.7029300  17.0602951  22.2914635  41.4699755
  17.1091106  23.1676758  41.0877524  17.6025465  21.7492028  40.8971398
  27.5457797  32.8355758  40.7500892  26.7553340  32.8179897  40.2105391
  27.3091151  33.3744052  41.5049928  27.6655672  29.6848225  38.0633620
  27.7153677  29.5198232  39.0049143  27.5569595  28.8175484  37.6731501
  16.5491930  32.3636770  25.3525709  16.6980051  33.0472235  24.6992382
  17.3558374  32.3441860  25.8675165  24.9559434  25.6679153  39.3792927
  25.8569297  25.5285617  39.0876925  25.0307409  25.8333607  40.3191104
  19.2902239  23.0446007  38.2246113  18.4205549  23.3379573  37.9528702
  19.5261720  23.6286452  38.9453377  29.1673869  32.1045166  38.3075642
  28.8758677  32.4675147  39.1439103  28.5546000  31.3912174  38.1288974
  30.3669551  29.6698046  30.8278212  31.2016442  30.1087850  30.9915772
  30.5028680  29.1936699  30.0086458  27.4161057  27.2277781  36.7755700
  27.8915178  27.4205427  35.9674551  26.4926622  27.2836967  36.5299083
  14.3044563  28.3901948  26.3586778  14.0590605  27.4864278  26.5566988
  14.4740478  28.3919098  25.4166256  21.9941273  19.2625624  35.7411534
  22.5123217  19.9986651  35.4158022  21.6396406  19.5689618  36.5758293
  22.2453867  15.6825907  31.2612430  22.5255621  15.0149096  31.8872857
  23.0304474  15.8755002  30.7487094  20.0487336  34.8584901  22.8237457
  19.4761303  35.4775088  22.3707928  20.6220130  35.4084262  23.3577379
  26.1162726  24.1043541  35.0084005  27.0680149  24.2041638  35.0296229
  25.9466176  23.3121809  35.5182090  24.1377105  21.1899124  35.1943406
  23.5427037  21.4704137  34.4989895  23.8526802  21.6793025  35.9660147
  23.2684596  35.1422051  23.9546039  24.2015269  35.0767612  24.1578914
  23.1807809  35.9778318  23.4960572  25.8972612  34.4587921  20.9149986
  25.8186244  34.1247785  21.8085744  26.7182279  34.9509689  20.9141459
  28.5950804  27.3249660  34.1226305  28.5627124  26.3865661  34.3085989
  29.2051427  27.4033697  33.3892130  28.7445292  24.1160704  34.1684588
  28.2284341  23.3319161  33.9814517  29.6285241  23.7879421  34.3331108
  26.4056019  17.8601719  30.1280401  26.2080840  17.5516808  31.0123733
  27.0155725  18.5863358  30.2578331  34.4127353  28.3865667  33.2632342
  35.1430742  28.1250955  33.8240045  33.8034299  27.6494389  33.3034410
  32.4942651  26.5273530  33.8606793  31.7675814  26.3929495  33.2523285
  32.0789937  26.8350359  34.6663511  20.3172827  30.2463460  41.6254166
  21.2375836  30.4242059  41.8194213  20.2822410  29.3019505  41.4733865
   9.5354992  25.4402053  30.5507441   9.2157776  24.5867361  30.2581815
   8.9888420  25.6550631  31.3065408  13.3134900  28.1564494  34.2676947
  13.5320909  29.0881602  34.2864981  13.7260673  27.7972469  35.0531751
  20.2339117  18.6632580  26.2552636  19.4239846  18.3179665  26.6307882
  20.9223534  18.3540123  26.8440247  22.1629666  17.7410626  27.8776932
  22.7160704  18.1606080  28.5366955  22.3999752  16.8146374  27.9199888
  18.1862765  23.7297700  43.6579696  18.0859492  24.6792057  43.5891787
  17.9684307  23.4015939  42.7855766   9.4043252  29.0604965  32.5200562
   8.7106723  28.6458918  32.0070517  10.1516243  29.1025501  31.9233981
  25.5408473  19.8511152  27.3855597  24.9607142  20.5095956  27.0033649
  25.2744405  19.0288496  26.9743014  23.9912039  19.2516209  29.5876917
  24.4911817  19.3632744  28.7791236  24.6347647  18.9477262  30.2277725
  18.0494035  27.1594839  42.4744758  17.5661117  27.9595199  42.6808647
  18.1354974  27.1702784  41.5212202  11.3179994  28.9923219  30.3966577
  11.2950683  29.0910906  29.4448460  11.6280631  29.8388369  30.7183743
  13.9767372  31.0499374  34.5113192  14.9310626  31.0183316  34.4443123
  13.7779896  30.5889997  35.3263418  14.5666755  29.6200490  37.0783989
  15.3859643  30.1144568  37.1018827  14.8403562  28.7032458  37.0501557
  24.3233351  22.0111242  26.4411945  23.4359206  22.2960893  26.2232140
  24.7387340  21.8505005  25.5939222  27.6747887  22.0357763  30.1566284
  28.4508277  22.5254215  30.4290901  26.9496021  22.4615817  30.6138154
  30.1120445  22.7485382  31.2140225  30.7064936  22.5081118  30.5033533
  30.1847029  22.0292513  31.8413761  12.3317601  36.5918993  31.5283389
  12.1972069  35.8319394  30.9621388  11.9149663  37.3159893  31.0612178
  23.4676564  31.7755917  20.5359965  24.1712414  31.9805919  21.1517620
  22.7439213  32.3432678  20.8009048  24.2974374  27.5265778  26.6562235
  24.2409576  27.9834329  25.8169867  24.8502717  26.7656462  26.4785078
  28.1079180  23.3155510  27.4812354  27.8516115  22.9152145  28.3120562
  27.4832048  24.0299304  27.3562494  32.4191518  26.0551583  29.9883646
  31.8591076  26.1244772  30.7615208  31.8135022  25.8792568  29.2683142
  15.4886727  37.4888310  31.7401832  15.3719111  38.4333743  31.6380522
  14.6679173  37.1861872  32.1287631  25.3763262  32.2138446  22.5858425
  26.2108866  31.7819644  22.4035900  25.2147604  32.0420459  23.5135319
  25.0309154  28.7170559  23.9514764  24.9757958  28.5514831  23.0103208
  24.4055209  29.4246592  24.1076954   9.8201669  23.9538623  37.7776186
  10.4660532  23.4437577  38.2663412   9.6118820  24.6907305  38.3519612
  22.3455061  31.0219471  43.2768327  23.2146221  31.1960123  42.9154962
  21.8661812  31.8413888  43.1544056  16.5141241  38.1416572  34.9557761
  17.4168488  38.1740182  35.2724256  16.2878611  37.2117023  34.9704096
  18.2694843  36.8947558  31.6167839  17.3190474  36.8949420  31.5032211
  18.5727329  36.1480293  31.1003874  22.1557399  14.8121445  27.7846019
  21.3889794  14.2579931  27.9302702  22.5668104  14.8843313  28.6460171
  14.1599160  21.1006241  41.8751201  15.0230621  20.7443045  42.0854525
  13.5864570  20.7620135  42.5626605  34.0047537  42.7308097  32.6813602
  34.6425947  42.6114844  31.9776942  33.8868380  43.6788941  32.7401554
  30.8137243  42.6835525  32.6175126  30.4755754  42.5676590  31.7295661
  31.6827011  42.2826690  32.5976132  26.6724059  44.5371001  28.6072017
  26.1088924  44.4460938  27.8388305  26.5576454  43.7170906  29.0874510
  31.2957026  43.8370377  38.5761332  31.2845667  43.4423175  37.7041835
  31.4577665  43.1036449  39.1695103  24.2188491  46.0322193  31.4456238
  25.0109783  45.6913018  31.0302537  24.4585141  46.1417168  32.3658391
  32.2523617  48.2041969  23.9186482  31.6011597  48.7896050  23.5320496
  33.0467980  48.7348164  23.9781520  26.1779245  45.2931106  24.3173616
  26.9510121  44.7460093  24.1786492  26.5304643  46.1575356  24.5288078
  28.0164287  46.6207489  37.5240516  27.7254153  47.5253119  37.4087182
  28.6521271  46.6624016  38.2384585  28.9420494  43.9984337  34.1141875
  29.5384066  43.7740359  33.3998838  28.9995465  43.2569083  34.7167323
  28.5145522  41.4523772  21.9492066  28.7671043  40.9305294  21.1875529
  27.5770081  41.2889918  22.0518750  33.5588805  40.4559551  29.7566810
  34.3451894  40.0378974  29.4057227  33.8227509  41.3605643  29.9248458
  33.7298883  45.8932401  24.4555466  33.0944715  45.9667028  25.1676371
  33.3996289  46.4826000  23.7774546  38.9597232  40.3934784  30.6599788
  39.6922404  39.8234001  30.8937618  38.2036588  40.0056384  31.1006294
  28.2341811  43.3551878  24.1516441  28.1178069  42.6796782  24.8197526
  28.3444071  42.8684252  23.3348594  30.5773352  42.8162025  27.8563131
  30.2131559  42.2892646  28.5676052  31.4340468  42.4260494  27.6829616
  36.4822653  34.1056358  35.1194397  36.1505977  34.9751769  34.8955612
  35.8868266  33.7892642  35.7988427  30.2178839  37.8451925  22.8524479
  30.3853241  38.7132162  23.2194950  30.0276008  38.0079207  21.9285768
  32.9754172  46.3068904  34.5190309  32.6754895  47.2093943  34.4106117
  32.6305232  46.0401087  35.3711462  26.4266654  42.7582701  30.5527014
  25.5017150  42.6258915  30.7604706  26.6751067  43.5376920  31.0496956
  36.3751316  38.8251444  32.1987747  35.4668193  38.7566853  31.9046508
  36.3238912  39.3023389  33.0269572  30.1968060  40.3009583  23.8371146
  30.0767685  40.7466633  24.6756626  29.5020648  40.6494900  23.2784684
  23.7875465  42.4015974  31.3870803  23.9167846  42.6550453  32.3010215
  23.1072916  42.9943682  31.0675458  27.9574952  53.0713224  27.4861277
  27.8798982  54.0221049  27.5649758  27.3536596  52.7259097  28.1436203
  30.4492182  40.2441090  40.1422644  29.6725516  40.8035010  40.1325509
  31.0882745  40.7297873  40.6637514  38.2412962  37.0267883  33.9765621
  37.5987343  37.3200416  33.3305415  37.7367891  36.9120803  34.7818817
  35.8953126  40.7731056  24.6651480  36.8070982  41.0058443  24.4899178
  35.3862773  41.3568100  24.1026559  28.7038554  43.0526543  39.7040611
  29.4453238  43.5911587  39.4275435  27.9975540  43.6792832  39.8612163
  34.1793894  45.1955684  38.3012773  34.5877250  44.7538094  37.5567405
  33.4571155  44.6208311  38.5546965  30.5324964  40.1328290  35.6746329
  31.3786159  40.5567704  35.8180978  30.4723601  39.4761915  36.3684893
  34.5022708  45.7556874  32.0565061  33.8731571  45.9202588  31.3541129
  34.1148370  46.1698484  32.8276025  38.3811940  46.6911312  29.4109425
  37.6962978  47.0710213  28.8606459  38.4655790  47.3006639  30.1441373
  33.6824409  37.7932659  37.3327503  33.4385341  38.5474719  36.7961779
  33.9584340  38.1718006  38.1674750  35.6362872  44.3371271  36.0104769
  35.8479767  44.9803031  35.3339150  35.5892620  43.5033588  35.5426699
  33.2389101  36.9489092  32.9141341  32.3773580  37.2470345  33.2058078
  33.2651535  37.1659491  31.9822373  30.0550670  45.4931282  29.3215147
  30.5189016  45.7718985  28.5319769  29.7907468  44.5914727  29.1388237
  26.9474751  45.0402764  32.2594910  27.5176108  45.4690032  31.6212394
  27.5382863  44.7585349  32.9579095  28.9919556  41.6154435  26.1304712
  29.6943600  42.0675478  26.5978638  28.6600185  40.9738254  26.7584605
  27.4399918  40.2066191  40.5055921  26.8098578  40.8882472  40.7391318
  27.3336006  40.0949273  39.5609059  22.7344890  39.8737987  31.4321845
  21.9443944  40.1295516  30.9561956  23.2256138  40.6886325  31.5373886
  36.7508700  47.2143227  34.1827126  37.5726144  46.8123414  33.9009808
  36.7471103  47.1111461  35.1343242  24.6859636  40.2382567  28.3905322
  23.8890799  40.3501261  28.9088818  24.4585228  40.5769219  27.5246212
  30.5165303  46.7627270  36.3387837  30.5809736  47.2247677  37.1746008
  29.8076227  46.1324635  36.4670146  21.0182593  40.1268478  33.8636836
  21.2690632  41.0115488  34.1294412  21.5542142  39.9473079  33.0911928
  44.8414693  43.5581975  30.5312098  44.0878401  42.9889373  30.3756102
  44.9762234  43.5244640  31.4782732  30.2313321  48.4295377  26.2066817
  30.0958996  49.2746913  26.6351665  30.7723133  48.6314655  25.4432751
  26.7180661  34.5086957  42.8681172  26.3247606  33.9553156  43.5428816
  27.5346801  34.8197536  43.2587690  23.6842718  45.9470815  26.7794742
  24.1967239  46.7414066  26.9300307  24.3365431  45.2497106  26.7128343
  25.4937603  49.0636572  28.8617495  25.6704231  49.9854536  28.6738479
  26.2894437  48.7494991  29.2911875  29.6348622  35.9244836  40.4601429
  30.3758335  36.5251989  40.3805891  29.8666544  35.1822474  39.9019471
  24.7789960  41.1101204  38.7379658  24.6643475  40.2086461  39.0386757
  23.9234477  41.3564900  38.3864475  26.6168918  50.5814745  34.8627837
  27.1676344  50.4531809  34.0904831  25.7780394  50.8809634  34.5122730
  33.9563035  49.3321744  38.3648560  33.9381511  50.1530625  37.8728829
  34.8782955  49.2075819  38.5898701  30.4136089  46.8465873  39.2072069
  30.9464426  46.0854161  38.9771377  29.8850171  46.5539525  39.9496223
  33.5805784  31.9525939  34.7365710  33.2370054  32.8427581  34.6604821
  33.9484747  31.7627597  33.8735295  21.6491635  44.2759470  27.5554313
  22.4866857  44.6856478  27.3388020  21.8269903  43.3358912  27.5254506
  33.5456067  41.9434550  23.2438145  33.0302691  42.7139155  23.4826533
  33.2733376  41.2699686  23.8671207  31.1303178  36.7884251  28.3023384
  30.2744775  36.3991101  28.1229023  31.5430130  36.8676212  27.4423169
  32.6602325  34.3230594  32.7014944  32.1567120  34.2860730  31.8882749
  32.9532932  35.2323337  32.7611600  28.9045211  34.4069324  31.7081125
  29.7698208  34.2112133  31.3487015  28.9722720  34.1779676  32.6350482
  38.5190341  44.6966905  25.1791319  37.7419784  44.3578064  24.7346481
  39.1981822  44.7019528  24.5046284  33.3342370  39.8161642  25.0697927
  33.0292506  40.1307792  25.9208070  34.2872812  39.8943062  25.1125260
  31.7788802  45.9751866  26.7190881  31.2510164  45.2404625  26.4064118
  31.2776305  46.7526542  26.4730849  36.7581648  44.1700886  31.8357927
  36.1005323  44.8600148  31.9238056  37.5622047  44.5597318  32.1791913
  26.5107530  36.6371532  29.0797492  27.0851282  36.4146714  28.3470685
  27.0978512  36.7060227  29.8326093  35.5687107  42.5245259  29.8861869
  36.0818989  43.1575251  30.3883578  36.2188331  41.9246454  29.5205229
  26.8377117  38.6675993  23.0993377  26.0014429  39.0050680  23.4202652
  26.6981887  38.5324973  22.1620514  28.8130198  33.5112781  27.8072562
  28.1594610  33.1961798  27.1829176  28.7710672  32.8888521  28.5332385
  29.9241402  43.7932076  19.7225854  29.0168464  43.5621329  19.9217003
  30.4212434  42.9969695  19.9099835  32.8309481  52.5029583  22.6422540
  32.1571180  52.8061280  23.2507498  33.2175303  53.3058664  22.2927997
  32.0467938  39.9994714  32.1320209  31.1290499  40.2209661  31.9741897
  32.4628082  40.0741025  31.2731917  32.8302986  41.3986130  27.2622889
  33.5774805  41.9107527  26.9530012  33.0994575  41.0770183  28.1227283
  31.1029636  43.8944671  24.2449844  30.1940855  43.6103704  24.3422313
  31.1324720  44.3143749  23.3853151  36.3348903  47.5051260  28.0141011
  35.8811230  46.6642170  28.0706202  35.7042870  48.1412659  28.3515791
  35.2781823  38.4343246  29.2441679  34.5404580  37.9220633  29.5751921
  35.5308596  37.9943628  28.4324956  34.7781842  49.3427757  28.9490829
  35.0704817  49.9032814  28.2303195  35.2880463  49.6356318  29.7043989
  35.3793450  31.2119498  29.8383448  35.6852327  30.3516862  29.5509363
  36.1046055  31.8037119  29.6382442  21.6717806  41.6150185  28.2265046
  21.4742206  41.0219546  27.5016113  21.1164470  41.3102395  28.9440985
  29.6514530  41.5073291  30.3459639  29.7063140  40.5547128  30.2702116
  28.8405732  41.6632731  30.8300938  30.8005724  45.4353415  21.5837922
  30.3625154  44.7189273  21.1243560  31.5416164  45.6629529  21.0223014
  27.5906890  40.1250351  28.1050018  26.7774755  40.4244522  28.5115210
  28.0865884  39.7306040  28.8224500  29.7415468  50.1208108  30.0384283
  29.6991646  50.3468954  29.1092815  30.6578167  49.8871483  30.1870084
  33.1881101  40.5892176  36.9364912  33.5430489  40.8163649  37.7959378
  33.8353233  40.9210552  36.3142167  38.9178838  43.7110612  27.6414241
  38.7796737  43.9012208  26.7135430  38.5615057  44.4729994  28.0982292
  27.0820965  37.6968707  33.7211253  27.7220344  37.5557466  33.0234216
  26.2498495  37.4103220  33.3449855  38.9448218  45.7787139  32.6525512
  39.3784725  45.6862428  33.5008566  39.6579799  45.7544639  32.0145528
  27.8581268  46.9971137  29.8346245  28.6521867  46.5021457  29.6328820
  27.1472961  46.4689000  29.4713951  32.6776113  49.3789233  34.1858613
  32.7313135  49.9480169  34.9536329  31.8090894  49.5491118  33.8212650
  24.1664032  41.1414219  25.9105998  23.2361620  41.0798674  26.1275960
  24.2621504  40.6190172  25.1142639  24.0849581  37.6669032  28.4984240
  24.3456398  38.5814365  28.3893400  24.9066753  37.1993474  28.6480853
  25.5574506  39.0806789  35.6683064  26.2297560  38.8724151  35.0195713
  24.7304293  38.8828875  35.2288297  39.8063768  45.8210839  35.1858398
  39.9999658  46.7256650  35.4317673  39.7064386  45.3618258  36.0196983
  31.4600078  35.7068730  37.6848725  30.8127993  36.4058679  37.5913202
  32.2301094  36.1404874  38.0524973  34.8678876  45.9717582  40.7599278
  34.7164383  45.7428134  39.8429362  34.8583556  46.9288183  40.7730623
  31.6364213  43.5449495  35.7445545  32.5656273  43.6960654  35.5714512
  31.2155243  43.6333516  34.8894191  30.4352544  47.5700159  33.5144082
  30.2963630  47.2018944  34.3870021  29.6467141  48.0847799  33.3428040
  31.0300696  52.6709256  24.8569619  31.2052452  52.1997299  25.6715242
  30.3433484  53.2975022  25.0850880  31.9857760  46.9481762  30.9032920
  31.6507592  46.9082532  31.7990570  31.4861705  46.2826478  30.4303330
  25.9602004  42.3549392  36.4285501  25.8221801  41.6229631  37.0297040
  26.8706927  42.2658292  36.1469689  34.9216951  44.2937796  21.1769980
  34.3046122  43.5684624  21.0803033  34.4533440  45.0547156  20.8337054
  28.5884304  42.0669351  35.9169181  29.2983923  41.4262543  35.8755799
  28.5453612  42.3182246  36.8395362  27.3013238  39.0534569  37.7364821
  26.7650595  38.6025308  38.3886417  26.7129947  39.1880478  36.9935285
  25.5961782  55.8198618  31.6309479  25.8358380  56.4517143  32.3088498
  24.7530978  55.4686658  31.9174838  26.7115497  38.5123220  20.2991284
  25.8344963  38.3912021  19.9353531  27.1873250  37.7209299  20.0470173
  36.5788490  46.9676288  37.0689740  35.6915269  46.6302210  37.1916139
  37.1487041  46.2359320  37.3058505  18.2317637  43.3000380  30.3932791
  18.9188677  42.9862110  29.8053807  18.0765766  44.2041745  30.1200043
  23.0352359  38.1890577  34.8217815  22.9510548  37.5816246  34.0868225
  22.2135066  38.6799595  34.8227311  30.1089644  51.6277741  34.0350983
  30.0359815  52.4332712  34.5470288  29.6667037  51.8269707  33.2099005
  29.8979423  50.8649511  27.5453805  29.1146945  51.4071191  27.6392029
  30.5972168  51.3823490  27.9448046  33.2076073  36.6744140  30.1888010
  33.7044773  35.9214103  29.8689080  32.4363055  36.7108457  29.6231219
  41.0605831  42.3784506  31.8306302  41.0495707  43.2609221  31.4600235
  40.1923210  42.0256057  31.6360839  32.5688327  51.5264575  36.1909142
  33.2816299  52.1612040  36.1185043  32.0778356  51.6228441  35.3749144
  34.2905854  45.4315828  27.7626433  33.3562133  45.5517290  27.5931138
  34.4682522  44.5288294  27.4986443  29.7911042  38.8161523  29.9159695
  29.4208830  38.2632564  30.6040600  30.2870134  38.2119657  29.3634695
  37.6778405  41.2733147  28.2976468  38.1438858  42.1061138  28.2236770
  38.1285906  40.8078128  29.0021726  27.6200241  49.2759018  37.0114713
  28.3209700  49.9095501  37.1644107  27.1495356  49.6173750  36.2510352
  35.7454636  47.6176968  25.2962620  36.0214480  47.5033563  26.2056494
  34.8759135  47.2194453  25.2574793  35.6495068  33.6413734  32.3367369
  34.7358148  33.8717961  32.5049576  36.0788170  33.7252178  33.1881401
  35.4201527  41.8303626  34.8367263  34.7672977  42.0779533  34.1819716
  35.7981906  41.0167764  34.5029740  32.3808700  51.8663319  28.9395433
  32.5631095  51.0484975  29.4023186  33.2041686  52.0831011  28.5020323
  32.7150866  50.7931504  26.2010482  33.2438632  50.2823959  25.5880644
  32.9779086  50.4774034  27.0656015  31.4689100  42.5723437  41.3233300
  30.7929737  42.4717566  41.9935675  32.2916733  42.4162651  41.7869297
  23.2167959  48.8095373  33.9445815  23.8021395  48.0639061  34.0773720
  23.0192797  49.1199330  34.8282479  26.0706614  51.8446621  28.9608258
  25.4016989  52.3292748  28.4772298  25.9319484  52.0915841  29.8751636
  17.8085613  41.3800974  32.6650258  17.8469713  40.8464564  33.4587377
  17.3025906  40.8536179  32.0461236  30.2111882  53.8790364  35.5590916
  30.7630191  54.0421986  36.3240001  30.5518076  54.4694802  34.8870941
  25.1876376  36.2265514  36.1612801  25.2517702  37.0880345  35.7490198
  25.1243496  35.6139516  35.4285159  24.6628648  38.2988647  39.8085835
  25.2900687  37.9165724  40.4223359  23.8056567  38.0802849  40.1741528
  21.4394191  40.1065076  25.7404190  21.7347632  39.1975754  25.6871244
  20.5382227  40.0852815  25.4185192  33.3480270  51.8272340  32.5454598
  33.2231409  51.0262080  32.0365544  34.0059361  52.3218533  32.0568568
  24.9688438  38.1821072  31.7231738  24.2475024  38.7957040  31.5839212
  25.7581694  38.7178837  31.6448384  35.4115178  49.6281360  34.1734148
  34.4645514  49.5086711  34.1012475  35.7597951  48.7403858  34.2560410
  27.7714752  35.5175499  37.9972390  28.2949153  35.7637795  38.7598700
  27.5527085  36.3495534  37.5775528  23.1682033  37.7879173  25.8643515
  22.8394739  36.9076552  25.6818621  23.5221403  37.7326842  26.7519904
  32.4161611  49.4234076  30.3738501  32.2686574  48.4950784  30.5546071
  33.2415105  49.4454167  29.8895576  26.2823856  38.0752143  26.2318993
  26.6219928  38.6038064  25.5097601  26.7295976  38.4132549  27.0077559
  36.0195733  50.2462635  31.4603373  36.9442281  50.0405496  31.3227824
  35.8511037  49.9979036  32.3692715  28.9767297  36.4589194  35.6822061
  28.6364117  35.6597007  36.0842741  28.2706303  36.7590905  35.1098894
  29.6283768  33.5438506  34.1349384  30.4509838  33.0698985  34.0128274
  29.8721832  34.3228990  34.6348070  28.2692003  36.5726765  24.4312285
  28.9900365  36.9508018  23.9276002  27.6457307  37.2915642  24.5347263
  32.4123126  37.2771914  25.3670618  32.6286740  38.1596552  25.0659446
  31.9317193  36.8858127  24.6376260  27.1522347  40.2357627  31.9441362
  27.0066928  40.5497930  32.8365644  26.6747551  40.8542527  31.3912261
  29.0118730  37.2260175  31.9922252  28.9980299  36.3301268  31.6554550
  29.7291158  37.2330839  32.6260538  30.8644861  37.6597515  34.0375379
  30.6062639  38.5814586  34.0359710  30.3329901  37.2627950  34.7275843
  35.8091049  50.7648302  26.8165465  35.9827927  50.1994725  26.0639317
  36.3019941  51.5649197  26.6344955  21.6268009  42.7762971  34.8829024
  21.0821477  43.5522779  35.0149298  22.5047359  43.1233776  34.7248145
  28.4155626  36.1074555  27.2609822  28.5371537  35.1791201  27.4600710
  28.1257668  36.1213241  26.3488137  31.2846816  33.7929466  30.3976542
  31.3068513  33.8568799  29.4428521  31.7014875  32.9533974  30.5917048
  41.6630441  43.5284725  28.4355764  42.1061587  42.7792050  28.0374888
  40.7856951  43.5194862  28.0529496  36.7966222  50.0815067  23.9162363
  37.4917127  50.7021759  24.1349678  37.1389372  49.2310418  24.1914741
  22.4134031  41.9032868  37.7759180  21.6715767  42.0515503  38.3623811
  22.0926775  42.1641133  36.9125930  38.6957645  47.5314772  25.4449694
  39.2208969  47.8702045  24.7199014  38.6079998  46.5961788  25.2612828
  30.3577694  51.4448846  37.5739570  30.6664820  51.1997993  38.4462270
  31.1553176  51.6495484  37.0858441  30.3798306  53.5986755  29.8044947
  29.9403296  53.1063134  30.4977804  31.1306423  53.0559723  29.5637022
  22.8590645  49.7898296  29.8069575  23.6848665  49.4902068  29.4268219
  22.5084697  49.0205919  30.2559364  27.8272178  49.1424765  31.8767249
  27.2052187  48.4795470  31.5769477  28.4977045  49.1685896  31.1940896
  21.0599250  47.7084623  30.7658509  20.2231158  47.2806797  30.5842510
  21.0322895  47.9017066  31.7029300  27.8996705  37.6206553  41.4699755
  27.9484861  38.4968675  41.0877524  28.4419220  37.0783946  40.8971398
  38.5049426  45.0140142  38.0633620  38.5547431  44.8490150  39.0049143
  38.3963350  44.1467401  37.6731501  27.3885685  47.6928688  25.3525709
  27.5373805  48.3764152  24.6992382  28.1952128  47.6733778  25.8675165
  35.7953189  40.9971070  39.3792927  36.6963051  40.8577535  39.0876925
  35.8701163  41.1625525  40.3191104  30.1295994  38.3737925  38.2246113
  29.2599303  38.6671491  37.9528702  30.3655474  38.9578370  38.9453377
  40.0067623  47.4337084  38.3075642  39.7152431  47.7967064  39.1439103
  39.3939754  46.7204092  38.1288974  41.2063305  44.9989964  30.8278212
  42.0410197  45.4379768  30.9915772  41.3422434  44.5228617  30.0086458
  38.2554811  42.5569698  36.7755700  38.7308933  42.7497345  35.9674551
  37.3320377  42.6128884  36.5299083  25.1438318  43.7193866  26.3586778
  24.8984360  42.8156196  26.5566988  25.3134232  43.7211016  25.4166256
  32.8335028  34.5917542  35.7411534  33.3516972  35.3278569  35.4158022
  32.4790161  34.8981535  36.5758293  24.4133965  39.4522223  23.8572940
  23.7203210  39.5266578  23.2012976  24.1685717  38.6882567  24.3794456
  33.0847622  31.0117824  31.2612430  33.3649376  30.3441014  31.8872857
  33.8698229  31.2046920  30.7487094  30.8881090  50.1876818  22.8237457
  30.3155058  50.8067006  22.3707928  31.4613884  50.7376180  23.3577379
  36.9556480  39.4335458  35.0084005  37.9073903  39.5333556  35.0296229
  36.7859931  38.6413727  35.5182090  34.9770860  36.5191042  35.1943406
  34.3820792  36.7996054  34.4989895  34.6920556  37.0084943  35.9660147
  34.1078350  50.4713969  23.9546039  35.0409023  50.4059530  24.1578914
  34.0201563  51.3070235  23.4960572  36.7366367  49.7879839  20.9149986
  36.6579998  49.4539702  21.8085744  37.5576034  50.2801607  20.9141459
  39.4344558  42.6541578  34.1226305  39.4020878  41.7157579  34.3085989
  40.0445182  42.7325615  33.3892130  31.2727889  41.5237631  20.1653509
  32.2186994  41.3943839  20.2341927  30.8942134  40.7852293  20.6422937
  39.5839047  39.4452622  34.1684588  39.0678095  38.6611078  33.9814517
  40.4678995  39.1171338  34.3331108  37.2449773  33.1893637  30.1280401
  37.0474595  32.8808725  31.0123733  37.8549479  33.9155276  30.2578331
  45.2521108  43.7157585  33.2632342  45.9824496  43.4542873  33.8240045
  44.6428053  42.9786307  33.3034410  43.3336405  41.8565448  33.8606793
  42.6069569  41.7221413  33.2523285  42.9183692  42.1642276  34.6663511
  31.1566581  45.5755377  41.6254166  32.0769591  45.7533976  41.8194213
  31.1216165  44.6311423  41.4733865  29.4570806  39.4487608  20.1008394
  28.5502261  39.1520720  20.1771108  29.7346787  39.1517426  19.2342681
  20.3748746  40.7693971  30.5507441  20.0551531  39.9159279  30.2581815
  19.8282175  40.9842549  31.3065408  24.1528654  43.4856412  34.2676947
  24.3714664  44.4173520  34.2864981  24.5654428  43.1264386  35.0531751
  31.0732872  33.9924497  26.2552636  30.2633600  33.6471582  26.6307882
  31.7617289  33.6832041  26.8440247  33.0023420  33.0702544  27.8776932
  33.5554459  33.4897997  28.5366955  33.2393506  32.1438292  27.9199888
  29.0256519  39.0589618  43.6579696  28.9253246  40.0083975  43.5891787
  28.8078061  38.7307857  42.7855766  28.2269591  36.3074543  20.2420374
  29.0888755  36.6329441  20.5016191  28.4119935  35.5206039  19.7293439
  20.2437006  44.3896882  32.5200562  19.5500478  43.9750835  32.0070517
  20.9909997  44.4317419  31.9233981  36.3802227  35.1803069  27.3855597
  35.8000896  35.8387873  27.0033649  36.1138160  34.3580414  26.9743014
  34.8305794  34.5808127  29.5876917  35.3305572  34.6924661  28.7791236
  35.4741401  34.2769180  30.2277725  28.8887789  42.4886757  42.4744758
  28.4054871  43.2887117  42.6808647  28.9748728  42.4994701  41.5212202
  22.1573749  44.3215136  30.3966577  22.1344437  44.4202823  29.4448460
  22.4674385  45.1680287  30.7183743  24.8161127  46.3791291  34.5113192
  25.7704380  46.3475234  34.4443123  24.6173650  45.9181915  35.3263418
  25.4060509  44.9492407  37.0783989  26.2253398  45.4436486  37.1018827
  25.6797317  44.0324375  37.0501557  35.1627105  37.3403160  26.4411945
  34.2752960  37.6252810  26.2232140  35.5781094  37.1796923  25.5939222
  38.5141641  37.3649681  30.1566284  39.2902031  37.8546133  30.4290901
  37.7889776  37.7907735  30.6138154  40.9514200  38.0777300  31.2140225
  41.5458691  37.8373036  30.5033533  41.0240784  37.3584430  31.8413761
  23.1711356  51.9210911  31.5283389  23.0365824  51.1611312  30.9621388
  22.7543418  52.6451811  31.0612178  34.3070319  47.1047834  20.5359965
  35.0106169  47.3097837  21.1517620  33.5832967  47.6724596  20.8009048
  35.1368129  42.8557696  26.6562235  35.0803330  43.3126247  25.8169867
  35.6896471  42.0948380  26.4785078  38.9472935  38.6447427  27.4812354
  38.6909869  38.2444063  28.3120562  38.3225803  39.3591221  27.3562494
  43.2585273  41.3843501  29.9883646  42.6984831  41.4536690  30.7615208
  42.6528776  41.2084485  29.2683142  26.3280482  52.8180228  31.7401832
  26.2112866  53.7625660  31.6380522  25.5072928  52.5153789  32.1287631
  36.2157016  47.5430363  22.5858425  37.0502620  47.1111562  22.4035900
  36.0541359  47.3712377  23.5135319  35.8702908  44.0462477  23.9514764
  35.8151712  43.8806748  23.0103208  35.2448964  44.7538510  24.1076954
  20.6595423  39.2830541  37.7776186  21.3054287  38.7729495  38.2663412
  20.4512574  40.0199223  38.3519612  29.1799034  33.5470586  23.5300083
  29.1677704  34.4912426  23.6868353  30.0722456  33.3640731  23.2359544
  27.3534996  53.4708490  34.9557761  28.2562242  53.5032100  35.2724256
  27.1272366  52.5408941  34.9704096  29.1088598  52.2239476  31.6167839
  28.1584229  52.2241338  31.5032211  29.4121084  51.4772211  31.1003874
  32.9951153  30.1413362  27.7846019  32.2283549  29.5871849  27.9302702
  33.4061858  30.2135231  28.6460171  24.9992914  36.4298158  41.8751201
  25.8624376  36.0734963  42.0854525  24.4258325  36.0912053  42.5626605
  44.8441291  58.0600015  32.6813602  45.4819701  57.9406762  31.9776942
  44.7262134  59.0080859  32.7401554  41.6530997  58.0127443  32.6175126
  41.3149509  57.8968507  31.7295661  42.5220766  57.6118608  32.5976132
  37.5117813  59.8662919  28.6072017  36.9482678  59.7752856  27.8388305
  37.3970208  59.0462824  29.0874510  35.0582245  61.3614111  31.4456238
  35.8503537  61.0204935  31.0302537  35.2978895  61.4709086  32.3658391
  37.0172999  60.6223024  24.3173616  37.7903875  60.0752011  24.1786492
  37.3698398  61.4867273  24.5288078  39.7814248  59.3276255  34.1141875
  40.3777821  59.1032277  33.3998838  39.8389220  58.5861000  34.7167323
  39.3539277  56.7815690  21.9492066  39.6064798  56.2597211  21.1875529
  38.4163836  56.6181835  22.0518750  44.3982560  55.7851468  29.7566810
  45.1845649  55.3670892  29.4057227  44.6621264  56.6897561  29.9248458
  44.5692637  61.2224319  24.4555466  43.9338470  61.2958945  25.1676371
  44.2390043  61.8117918  23.7774546  49.7990987  55.7226702  30.6599788
  50.5316159  55.1525918  30.8937618  49.0430342  55.3348302  31.1006294
  39.0735566  58.6843796  24.1516441  38.9571824  58.0088699  24.8197526
  39.1837825  58.1976170  23.3348594  41.4167107  58.1453943  27.8563131
  41.0525314  57.6184564  28.5676052  42.2734222  57.7552412  27.6829616
  41.0572593  53.1743843  22.8524479  41.2246996  54.0424079  23.2194950
  40.8669763  53.3371124  21.9285768  37.2660408  58.0874619  30.5527014
  36.3410905  57.9550833  30.7604706  37.5144821  58.8668838  31.0496956
  47.2145070  54.1543362  32.1987747  46.3061948  54.0858770  31.9046508
  47.1632666  54.6315307  33.0269572  41.0361814  55.6301500  23.8371146
  40.9161440  56.0758551  24.6756626  40.3414403  55.9786818  23.2784684
  34.6269219  57.7307892  31.3870803  34.7561600  57.9842371  32.3010215
  33.9466670  58.3235600  31.0675458  46.7346881  56.1022973  24.6651480
  47.6464737  56.3350360  24.4899178  46.2256528  56.6860018  24.1026559
  41.3718718  55.4620208  35.6746329  42.2179913  55.8859622  35.8180978
  41.3117356  54.8053832  36.3684893  49.2205695  62.0203230  29.4109425
  48.5356733  62.4002131  28.8606459  49.3049544  62.6298556  30.1441373
  44.5218164  53.1224576  37.3327503  44.2779095  53.8766637  36.7961779
  44.7978094  53.5009924  38.1674750  46.4756626  59.6663189  36.0104769
  46.6873522  60.3094949  35.3339150  46.4286375  58.8325505  35.5426699
  44.0782855  52.2781009  32.9141341  43.2167334  52.5762263  33.2058078
  44.1045290  52.4951408  31.9822373  37.7868506  60.3694682  32.2594910
  38.3569863  60.7981950  31.6212394  38.3776618  60.0877266  32.9579095
  39.8313311  56.9446352  26.1304712  40.5337354  57.3967396  26.5978638
  39.4993939  56.3030171  26.7584605  33.5738645  55.2029905  31.4321845
  32.7837699  55.4587434  30.9561956  34.0649892  56.0178243  31.5373886
  35.5253390  55.5674484  28.3905322  34.7284553  55.6793179  28.9088818
  35.2978982  55.9061137  27.5246212  31.8576348  55.4560395  33.8636836
  32.1084386  56.3407405  34.1294412  32.3935896  55.2764997  33.0911928
  55.6808447  58.8873893  30.5312098  54.9272156  58.3181291  30.3756102
  55.8155989  58.8536557  31.4782732  44.4199539  47.2817857  34.7365710
  44.0763808  48.1719499  34.6604821  44.7878502  47.0919515  33.8735295
  44.3849822  57.2726468  23.2438145  43.8696445  58.0431073  23.4826533
  44.1127130  56.5991604  23.8671207  41.9696933  52.1176169  28.3023384
  41.1138529  51.7283019  28.1229023  42.3823884  52.1968130  27.4423169
  43.4996079  49.6522512  32.7014944  42.9960875  49.6152647  31.8882749
  43.7926686  50.5615255  32.7611600  39.7438965  49.7361242  31.7081125
  40.6091962  49.5404050  31.3487015  39.8116474  49.5071594  32.6350482
  49.3584096  60.0258823  25.1791319  48.5813539  59.6869982  24.7346481
  50.0375577  60.0311446  24.5046284  44.1736125  55.1453560  25.0697927
  43.8686260  55.4599709  25.9208070  45.1266567  55.2234980  25.1125260
  47.5975403  59.4992804  31.8357927  46.9399077  60.1892065  31.9238056
  48.4015802  59.8889236  32.1791913  37.3501284  51.9663450  29.0797492
  37.9245036  51.7438631  28.3470685  37.9372267  52.0352144  29.8326093
  46.4080862  57.8537177  29.8861869  46.9212743  58.4867168  30.3883578
  47.0582085  57.2538372  29.5205229  37.6770871  53.9967911  23.0993377
  36.8408184  54.3342597  23.4202652  37.5375641  53.8616891  22.1620514
  39.6523952  48.8404699  27.8072562  38.9988364  48.5253716  27.1829176
  39.6104426  48.2180439  28.5332385  40.7635157  59.1223994  19.7225854
  39.8562219  58.8913247  19.9217003  41.2606189  58.3261613  19.9099835
  43.6703236  67.8321501  22.6422540  42.9964935  68.1353198  23.2507498
  44.0569058  68.6350581  22.2927997  42.8861692  55.3286632  32.1320209
  41.9684254  55.5501579  31.9741897  43.3021836  55.4032943  31.2731917
  43.6696740  56.7278048  27.2622889  44.4168559  57.2399445  26.9530012
  43.9388330  56.4062101  28.1227283  41.9423390  59.2236589  24.2449844
  41.0334610  58.9395621  24.3422313  41.9718474  59.6435667  23.3853151
  46.1175577  53.7635164  29.2441679  45.3798334  53.2512550  29.5751921
  46.3702351  53.3235546  28.4324956  46.2187205  46.5411416  29.8383448
  46.5246081  45.6808780  29.5509363  46.9439809  47.1329036  29.6382442
  32.5111561  56.9442103  28.2265046  32.3135961  56.3511463  27.5016113
  31.9558225  56.6394313  28.9440985  40.4908284  56.8365209  30.3459639
  40.5456894  55.8839046  30.2702116  39.6799486  56.9924648  30.8300938
  41.6399478  60.7645332  21.5837922  41.2018908  60.0481191  21.1243560
  42.3809919  60.9921447  21.0223014  38.4300644  55.4542269  28.1050018
  37.6168510  55.7536439  28.5115210  38.9259638  55.0597958  28.8224500
  44.0274856  55.9184093  36.9364912  44.3824244  56.1455566  37.7959378
  44.6746987  56.2502470  36.3142167  49.7572593  59.0402529  27.6414241
  49.6190491  59.2304125  26.7135430  49.4008812  59.8021912  28.0982292
  37.9214719  53.0260624  33.7211253  38.5614098  52.8849384  33.0234216
  37.0892250  52.7395138  33.3449855  49.7841972  61.1079056  32.6525512
  50.2178479  61.0154345  33.5008566  50.4973553  61.0836557  32.0145528
  35.0057786  56.4706137  25.9105998  34.0755374  56.4090592  26.1275960
  35.1015258  55.9482089  25.1142639  34.9243335  52.9960949  28.4984240
  35.1850153  53.9106283  28.3893400  35.7460508  52.5285392  28.6480853
  36.3968261  54.4098707  35.6683064  37.0691314  54.2016069  35.0195713
  35.5698047  54.2120793  35.2288297  42.2993833  51.0360647  37.6848725
  41.6521748  51.7350597  37.5913202  43.0694848  51.4696791  38.0524973
  42.4757967  58.8741412  35.7445545  43.4050027  59.0252572  35.5714512
  42.0548997  58.9625433  34.8894191  45.7610706  59.6229714  21.1769980
  45.1439876  58.8976542  21.0803033  45.2927194  60.3839074  20.8337054
  37.5509252  53.8415138  20.2991284  36.6738718  53.7203939  19.9353531
  38.0267005  53.0501216  20.0470173  33.8746114  53.5182494  34.8217815
  33.7904303  52.9108164  34.0868225  33.0528820  54.0091513  34.8227311
  44.0469828  52.0036058  30.1888010  44.5438527  51.2506020  29.8689080
  43.2756809  52.0400375  29.6231219  51.8999585  57.7076424  31.8306302
  51.8889461  58.5901139  31.4600235  51.0316965  57.3547974  31.6360839
  40.6304797  54.1453441  29.9159695  40.2602584  53.5924481  30.6040600
  41.1263889  53.5411574  29.3634695  48.5172160  56.6025064  28.2976468
  48.9832612  57.4353056  28.2236770  48.9679660  56.1370046  29.0021726
  46.5848391  62.9468886  25.2962620  46.8608235  62.8325480  26.2056494
  45.7152890  62.5486371  25.2574793  46.4888823  48.9705651  32.3367369
  45.5751902  49.2009878  32.5049576  46.9181924  49.0544096  33.1881401
  46.2595281  57.1595543  34.8367263  45.6066731  57.4071451  34.1819716
  46.6375661  56.3459682  34.5029740  28.6479368  56.7092891  32.6650258
  28.6863467  56.1756482  33.4587377  28.1419661  56.1828097  32.0461236
  36.0270130  51.5557432  36.1612801  36.0911457  52.4172263  35.7490198
  35.9637250  50.9431433  35.4285159  32.2787945  55.4356993  25.7404190
  32.5741387  54.5267672  25.6871244  31.3775981  55.4144733  25.4185192
  35.8082192  53.5112990  31.7231738  35.0868778  54.1248958  31.5839212
  36.5975448  54.0470755  31.6448384  34.0075787  53.1171091  25.8643515
  33.6788493  52.2368470  25.6818621  34.3615158  53.0618760  26.7519904
  37.1217610  53.4044061  26.2318993  37.4613683  53.9329982  25.5097601
  37.5689731  53.7424467  27.0077559  39.8161051  51.7881112  35.6822061
  39.4757871  50.9888925  36.0842741  39.1100057  52.0882822  35.1098894
  40.4677523  48.8730424  34.1349384  41.2903592  48.3990902  34.0128274
  40.7115586  49.6520908  34.6348070  39.1085757  51.9018682  24.4312285
  39.8294120  52.2799935  23.9276002  38.4851061  52.6207559  24.5347263
  43.2516880  52.6063831  25.3670618  43.4680495  53.4888469  25.0659446
  42.7710947  52.2150045  24.6376260  37.9916102  55.5649545  31.9441362
  37.8460682  55.8789848  32.8365644  37.5141305  56.1834445  31.3912261
  39.8512485  52.5552093  31.9922252  39.8374053  51.6593186  31.6554550
  40.5684913  52.5622756  32.6260538  41.7038615  52.9889433  34.0375379
  41.4456393  53.9106503  34.0359710  41.1723656  52.5919867  34.7275843
  46.6484804  66.0940220  26.8165465  46.8221682  65.5286642  26.0639317
  47.1413695  66.8941115  26.6344955  39.2549380  51.4366473  27.2609822
  39.3765292  50.5083119  27.4600710  38.9651423  51.4505159  26.3488137
  42.1240571  49.1221383  30.3976542  42.1462268  49.1860716  29.4428521
  42.5408630  48.2825892  30.5917048  52.5024195  58.8576643  28.4355764
  52.9455341  58.1083968  28.0374888  51.6250705  58.8486779  28.0529496
  47.6359976  65.4106984  23.9162363  48.3310881  66.0313677  24.1349678
  47.9783127  64.5602336  24.1914741  49.5351400  62.8606690  25.4449694
  50.0602724  63.1993963  24.7199014  49.4473752  61.9253705  25.2612828
  40.9689748  53.7029843  38.2246113  40.0993058  53.9963409  37.9528702
  41.2049229  54.2870288  38.9453377  52.0457060  60.3281881  30.8278212
  52.8803951  60.7671685  30.9915772  52.1816189  59.8520534  30.0086458
  35.9832072  59.0485783  26.3586778  35.7378114  58.1448113  26.5566988
  36.1527987  59.0502934  25.4166256  43.6728782  49.9209460  35.7411534
  44.1910726  50.6570487  35.4158022  43.3183915  50.2273453  36.5758293
  35.2527720  54.7814141  23.8572940  34.5596965  54.8558496  23.2012976
  35.0079472  54.0174484  24.3794456  43.9241376  46.3409742  31.2612430
  44.2043130  45.6732931  31.8872857  44.7091983  46.5338838  30.7487094
  45.8164614  51.8482959  35.1943406  45.2214546  52.1287972  34.4989895
  45.5314311  52.3376860  35.9660147  44.9472105  65.8005886  23.9546039
  45.8802778  65.7351448  24.1578914  44.8595318  66.6362153  23.4960572
  47.5760121  65.1171757  20.9149986  47.4973753  64.7831620  21.8085744
  48.3969788  65.6093524  20.9141459  50.2738313  57.9833496  34.1226305
  50.2414633  57.0449497  34.3085989  50.8838936  58.0617533  33.3892130
  42.1121643  56.8529549  20.1653509  43.0580748  56.7235757  20.2341927
  41.7335888  56.1144211  20.6422937  48.0843528  48.5185555  30.1280401
  47.8868349  48.2100643  31.0123733  48.6943234  49.2447194  30.2578331
  40.2964561  54.7779525  20.1008394  39.3896016  54.4812638  20.1771108
  40.5740542  54.4809343  19.2342681  31.2142501  56.0985889  30.5507441
  30.8945285  55.2451197  30.2581815  30.6675929  56.3134467  31.3065408
  41.9126626  49.3216415  26.2552636  41.1027355  48.9763500  26.6307882
  42.6011043  49.0123959  26.8440247  43.8417175  48.3994462  27.8776932
  44.3948213  48.8189915  28.5366955  44.0787261  47.4730210  27.9199888
  39.0663345  51.6366460  20.2420374  39.9282509  51.9621359  20.5016191
  39.2513689  50.8497956  19.7293439  31.0830761  59.7188800  32.5200562
  30.3894232  59.3042753  32.0070517  31.8303752  59.7609337  31.9233981
  47.2195982  50.5094987  27.3855597  46.6394651  51.1679791  27.0033649
  46.9531914  49.6872331  26.9743014  45.6699548  49.9100045  29.5876917
  46.1699326  50.0216579  28.7791236  46.3135156  49.6061097  30.2277725
  46.0020860  52.6695077  26.4411945  45.1146715  52.9544728  26.2232140
  46.4174849  52.5088841  25.5939222  49.3535396  52.6941598  30.1566284
  50.1295786  53.1838051  30.4290901  48.6283530  53.1199652  30.6138154
  51.7907954  53.4069217  31.2140225  52.3852445  53.1664953  30.5033533
  51.8634538  52.6876348  31.8413761  45.1464073  62.4339752  20.5359965
  45.8499923  62.6389754  21.1517620  44.4226722  63.0016514  20.8009048
  45.9761883  58.1849613  26.6562235  45.9197085  58.6418165  25.8169867
  46.5290226  57.4240298  26.4785078  49.7866689  53.9739345  27.4812354
  49.5303624  53.5735981  28.3120562  49.1619557  54.6883139  27.3562494
  54.0979027  56.7135418  29.9883646  53.5378585  56.7828608  30.7615208
  53.4922531  56.5376403  29.2683142  47.0550771  62.8722281  22.5858425
  47.8896374  62.4403480  22.4035900  46.8935113  62.7004295  23.5135319
  46.7096663  59.3754394  23.9514764  46.6545467  59.2098666  23.0103208
  46.0842718  60.0830427  24.1076954  31.4989178  54.6122459  37.7776186
  32.1448041  54.1021413  38.2663412  31.2906329  55.3491140  38.3519612
  40.0192788  48.8762503  23.5300083  40.0071458  49.8204343  23.6868353
  40.9116210  48.6932649  23.2359544  43.8344908  45.4705280  27.7846019
  43.0677303  44.9163767  27.9302702  44.2455613  45.5427149  28.6460171
  53.9311126  78.8625804  23.9186482  53.2799106  79.4479885  23.5320496
  54.7255489  79.3931999  23.9781520  50.1933031  72.1107608  21.9492066
  50.4458552  71.5889129  21.1875529  49.2557590  71.9473753  22.0518750
  49.9129320  74.0135714  24.1516441  49.7965578  73.3380617  24.8197526
  50.0231580  73.5268088  23.3348594  51.8966348  68.5035760  22.8524479
  52.0640750  69.3715997  23.2194950  51.7063517  68.6663042  21.9285768
  51.8755569  70.9593418  23.8371146  51.7555194  71.4050469  24.6756626
  51.1808157  71.3078736  23.2784684  49.6362461  83.7297060  27.4861277
  49.5586491  84.6804885  27.5649758  49.0324105  83.3842932  28.1436203
  66.5202202  74.2165810  30.5312098  65.7665910  73.6473208  30.3756102
  66.6549743  74.1828475  31.4782732  51.9100830  79.0879213  26.2066817
  51.7746505  79.9330748  26.6351665  52.4510642  79.2898490  25.4432751
  60.1977850  75.3550740  25.1791319  59.4207293  75.0161900  24.7346481
  60.8769331  75.3603363  24.5046284  48.5164626  69.3259828  23.0993377
  47.6801938  69.6634515  23.4202652  48.3769396  69.1908808  22.1620514
  50.4917706  64.1696616  27.8072562  49.8382119  63.8545633  27.1829176
  50.4498181  63.5472357  28.5332385  51.6028911  74.4515911  19.7225854
  50.6955973  74.2205165  19.9217003  52.0999943  73.6553531  19.9099835
  54.5096990  83.1613419  22.6422540  53.8358689  83.4645115  23.2507498
  54.8962812  83.9642499  22.2927997  52.4793233  76.0937250  21.5837922
  52.0412663  75.3773109  21.1243560  53.2203673  76.3213365  21.0223014
  51.4202977  80.7791943  30.0384283  51.3779155  81.0052790  29.1092815
  52.3365675  80.5455318  30.1870084  49.5368777  77.6554973  29.8346245
  50.3309376  77.1605293  29.6328820  48.8260470  77.1272836  29.4713951
  52.7088205  83.3293091  24.8569619  52.8839961  82.8581134  25.6715242
  52.0220993  83.9558857  25.0850880  56.6004460  74.9521632  21.1769980
  55.9833631  74.2268460  21.0803033  56.1320949  75.7130992  20.8337054
  48.3903006  69.1707056  20.2991284  47.5132472  69.0495857  19.9353531
  48.8660759  68.3793134  20.0470173  51.5766932  81.5233346  27.5453805
  50.7934454  82.0655026  27.6392029  52.2759677  82.0407326  27.9448046
  62.7393340  73.0368341  31.8306302  62.7283216  73.9193057  31.4600235
  61.8710719  72.6839892  31.6360839  54.0596209  82.5247154  28.9395433
  54.2418604  81.7068810  29.4023186  54.8829195  82.7414847  28.5020323
  44.8469542  68.4463009  25.8643515  44.5182248  67.5660388  25.6818621
  45.2008912  68.3910677  26.7519904  47.9611365  68.7335979  26.2318993
  48.3007437  69.2621900  25.5097601  48.4083485  69.0716385  27.0077559
  49.9479512  67.2310600  24.4312285  50.6687874  67.6091853  23.9276002
  49.3244816  67.9499477  24.5347263  54.0910635  67.9355749  25.3670618
  54.3074249  68.8180387  25.0659446  53.6104702  67.5441963  24.6376260
  50.0943135  66.7658391  27.2609822  50.2159046  65.8375037  27.4600710
  49.8045177  66.7797077  26.3488137  52.9634325  64.4513301  30.3976542
  52.9856022  64.5152634  29.4428521  53.3802384  63.6117810  30.5917048
  63.3417950  74.1868561  28.4355764  63.7849096  73.4375886  28.0374888
  62.4644460  74.1778697  28.0529496  58.4753731  80.7398902  23.9162363
  59.1704636  81.3605595  24.1349678  58.8176881  79.8894253  24.1914741
  52.0585815  84.2570591  29.8044947  51.6190805  83.7646970  30.4977804
  52.8093932  83.7143559  29.5637022  49.5059687  79.8008600  31.8767249
  48.8839696  79.1379305  31.5769477  50.1764554  79.8269732  31.1940896
  49.0673194  78.3512523  25.3525709  49.2161314  79.0347988  24.6992382
  49.8739637  78.3317613  25.8675165  62.8850814  75.6573799  30.8278212
  63.7197706  76.0963603  30.9915772  63.0209943  75.1812452  30.0086458
  46.0921474  70.1106058  23.8572940  45.3990719  70.1850413  23.2012976
  45.8473226  69.3466402  24.3794456  52.5668599  80.8460654  22.8237457
  51.9942566  81.4650841  22.3707928  53.1401393  81.3960015  23.3577379
  55.7865859  81.1297804  23.9546039  56.7196532  81.0643366  24.1578914
  55.6989072  81.9654071  23.4960572  58.4153876  80.4463674  20.9149986
  58.3367507  80.1123538  21.8085744  59.2363543  80.9385442  20.9141459
  52.9515398  72.1821466  20.1653509  53.8974503  72.0527675  20.2341927
  52.5729643  71.4436128  20.6422937  66.9308617  74.3741420  33.2632342
  67.6612005  74.1126708  33.8240045  66.3215562  73.6370142  33.3034410
  65.0123914  72.5149283  33.8606793  64.2857078  72.3805248  33.2523285
  64.5971201  72.8226112  34.6663511  51.1358315  70.1071443  20.1008394
  50.2289770  69.8104556  20.1771108  51.4134296  69.8101261  19.2342681
  52.7520381  64.6508333  26.2552636  51.9421109  64.3055418  26.6307882
  53.4404798  64.3415876  26.8440247  54.6810929  63.7286379  27.8776932
  55.2341968  64.1481833  28.5366955  54.9181015  62.8022127  27.9199888
  49.9057100  66.9658378  20.2420374  50.7676264  67.2913276  20.5016191
  50.0907444  66.1789874  19.7293439  55.9857828  77.7631670  20.5359965
  56.6893678  77.9681672  21.1517620  55.2620476  78.3308431  20.8009048
  64.9372782  72.0427336  29.9883646  64.3772340  72.1120525  30.7615208
  64.3316285  71.8668321  29.2683142  57.8944525  78.2014199  22.5858425
  58.7290129  77.7695397  22.4035900  57.7328868  78.0296212  23.5135319
  50.8586543  64.2054421  23.5300083  50.8465213  65.1496261  23.6868353
  51.7509965  64.0224567  23.2359544  54.6738662  60.7997198  27.7846019
  53.9071058  60.2455684  27.9302702  55.0849367  60.8719067  28.6460171
  66.5228800  88.7183850  32.6813602  67.1607210  88.5990597  31.9776942
  66.4049643  89.6664694  32.7401554  63.3318506  88.6711278  32.6175126
  62.9937018  88.5552343  31.7295661  64.2008275  88.2702443  32.5976132
  59.1905322  90.5246754  28.6072017  58.6270187  90.4336691  27.8388305
  59.0757717  89.7046659  29.0874510  63.8138289  89.8246130  38.5761332
  63.8026930  89.4298928  37.7041835  63.9758929  89.0912202  39.1695103
  56.7369754  92.0197946  31.4456238  57.5291046  91.6788771  31.0302537
  56.9766404  92.1292921  32.3658391  64.7704881  94.1917722  23.9186482
  64.1192861  94.7771803  23.5320496  65.5649244  94.7223917  23.9781520
  58.6960508  91.2806859  24.3173616  59.4691384  90.7335846  24.1786492
  59.0485907  92.1451109  24.5288078  60.5345551  92.6083242  37.5240516
  60.2435417  93.5128872  37.4087182  61.1702535  92.6499769  38.2384585
  61.4601757  89.9860090  34.1141875  62.0565330  89.7616112  33.3998838
  61.5176729  89.2444836  34.7167323  61.0326786  87.4399525  21.9492066
  61.2852306  86.9181047  21.1875529  60.0951345  87.2765671  22.0518750
  66.0770069  86.4435304  29.7566810  66.8633158  86.0254727  29.4057227
  66.3408773  87.3481396  29.9248458  66.2480146  91.8808154  24.4555466
  65.6125979  91.9542781  25.1676371  65.9177552  92.4701753  23.7774546
  71.4778496  86.3810537  30.6599788  72.2103668  85.8109754  30.8937618
  70.7217851  85.9932137  31.1006294  60.7523075  89.3427631  24.1516441
  60.6359333  88.6672535  24.8197526  60.8625334  88.8560005  23.3348594
  63.0954615  88.8037778  27.8563131  62.7312823  88.2768399  28.5676052
  63.9521731  88.4136248  27.6829616  69.0003916  80.0932111  35.1194397
  68.6687241  80.9627522  34.8955612  68.4049529  79.7768395  35.7988427
  62.7360102  83.8327678  22.8524479  62.9034505  84.7007915  23.2194950
  62.5457272  83.9954960  21.9285768  65.4935436  92.2944657  34.5190309
  65.1936159  93.1969696  34.4106117  65.1486495  92.0276840  35.3711462
  58.9447917  88.7458454  30.5527014  58.0198414  88.6134668  30.7604706
  59.1932330  89.5252673  31.0496956  68.8932579  84.8127197  32.1987747
  67.9849457  84.7442606  31.9046508  68.8420175  85.2899142  33.0269572
  62.7149323  86.2885336  23.8371146  62.5948949  86.7342386  24.6756626
  62.0201912  86.6370653  23.2784684  56.3056728  88.3891727  31.3870803
  56.4349109  88.6426206  32.3010215  55.6254179  88.9819435  31.0675458
  60.4756215  99.0588977  27.4861277  60.3980245 100.0096802  27.5649758
  59.8717859  98.7134850  28.1436203  62.9673445  86.2316843  40.1422644
  62.1906779  86.7910763  40.1325509  63.6064008  86.7173626  40.6637514
  70.7594226  83.0143636  33.9765621  70.1168606  83.3076169  33.3305415
  70.2549154  82.8996556  34.7818817  68.4134389  86.7606809  24.6651480
  69.3252246  86.9934196  24.4899178  67.9044037  87.3443853  24.1026559
  61.2219818  89.0402296  39.7040611  61.9634502  89.5787340  39.4275435
  60.5156803  89.6668585  39.8612163  66.6975157  91.1831437  38.3012773
  67.1058513  90.7413847  37.5567405  65.9752419  90.6084064  38.5546965
  63.0506227  86.1204043  35.6746329  63.8967422  86.5443457  35.8180978
  62.9904865  85.4637668  36.3684893  67.0203972  91.7432627  32.0565061
  66.3912834  91.9078341  31.3541129  66.6329634  92.1574237  32.8276025
  70.8993204  92.6787065  29.4109425  70.2144242  93.0585966  28.8606459
  70.9837053  93.2882392  30.1441373  66.2005673  83.7808412  37.3327503
  65.9566604  84.5350472  36.7961779  66.4765603  84.1593759  38.1674750
  68.1544135  90.3247024  36.0104769  68.3661031  90.9678784  35.3339150
  68.1073884  89.4909341  35.5426699  65.7570364  82.9364845  32.9141341
  64.8954843  83.2346098  33.2058078  65.7832799  83.1535244  31.9822373
  62.5731934  91.4807035  29.3215147  63.0370279  91.7594738  28.5319769
  62.3088732  90.5790480  29.1388237  59.4656015  91.0278517  32.2594910
  60.0357372  91.4565785  31.6212394  60.0564127  90.7461102  32.9579095
  61.5100820  87.6030188  26.1304712  62.2124863  88.0551231  26.5978638
  61.1781448  86.9614007  26.7584605  59.9581181  86.1941944  40.5055921
  59.3279842  86.8758225  40.7391318  59.8517269  86.0825026  39.5609059
  55.2526154  85.8613740  31.4321845  54.4625208  86.1171269  30.9561956
  55.7437401  86.6762078  31.5373886  69.2689963  93.2018980  34.1827126
  70.0907407  92.7999167  33.9009808  69.2652366  93.0987214  35.1343242
  57.2040899  86.2258320  28.3905322  56.4072062  86.3377014  28.9088818
  56.9766491  86.5644972  27.5246212  63.0346567  92.7503023  36.3387837
  63.0990999  93.2123430  37.1746008  62.3257491  92.1200388  36.4670146
  77.3595956  89.5457728  30.5312098  76.6059665  88.9765126  30.3756102
  77.4943498  89.5120393  31.4782732  62.7494584  94.4171130  26.2066817
  62.6140259  95.2622666  26.6351665  63.2904397  94.6190408  25.4432751
  56.2023982  91.9346568  26.7794742  56.7148502  92.7289819  26.9300307
  56.8546695  91.2372859  26.7128343  58.0118866  95.0512325  28.8617495
  58.1885495  95.9730289  28.6738479  58.8075700  94.7370744  29.2911875
  57.2971223  87.0976957  38.7379658  57.1824738  86.1962214  39.0386757
  56.4415741  87.3440653  38.3864475  64.3763061  95.0394697  40.3367159
  63.9326915  94.2531075  40.0188063  65.0380274  95.2273847  39.6711050
  59.1350182  96.5690498  34.8627837  59.6857607  96.4407562  34.0904831
  58.2961658  96.8685387  34.5122730  66.4744299  95.3197497  38.3648560
  66.4562774  96.1406378  37.8728829  67.3964219  95.1951572  38.5898701
  62.9317353  92.8341626  39.2072069  63.4645690  92.0729914  38.9771377
  62.4031434  92.5415278  39.9496223  66.0987048  77.9401692  34.7365710
  65.7551317  78.8303334  34.6604821  66.4666011  77.7503350  33.8735295
  54.1672899  90.2635223  27.5554313  55.0048121  90.6732231  27.3388020
  54.3451166  89.3234665  27.5254506  66.0637331  87.9310303  23.2438145
  65.5483954  88.7014908  23.4826533  65.7914639  87.2575440  23.8671207
  63.6484442  82.7760004  28.3023384  62.7926038  82.3866855  28.1229023
  64.0611393  82.8551965  27.4423169  65.1783588  80.3106347  32.7014944
  64.6748384  80.2736483  31.8882749  65.4714195  81.2199090  32.7611600
  71.0371605  90.6842658  25.1791319  70.2601048  90.3453817  24.7346481
  71.7163086  90.6895281  24.5046284  65.8523634  85.8037395  25.0697927
  65.5473769  86.1183545  25.9208070  66.8054076  85.8818815  25.1125260
  64.2970066  91.9627619  26.7190881  63.7691427  91.2280378  26.4064118
  63.7957568  92.7402295  26.4730849  69.2762912  90.1576639  31.8357927
  68.6186586  90.8475901  31.9238056  70.0803311  90.5473071  32.1791913
  59.0288793  82.6247285  29.0797492  59.6032545  82.4022467  28.3470685
  59.6159776  82.6935980  29.8326093  68.0868370  88.5121012  29.8861869
  68.6000252  89.1451004  30.3883578  68.7369594  87.9122207  29.5205229
  59.3558380  84.6551746  23.0993377  58.5195693  84.9926433  23.4202652
  59.2163150  84.5200726  22.1620514  61.3311461  79.4988534  27.8072562
  60.6775873  79.1837551  27.1829176  61.2891935  78.8764274  28.5332385
  62.4422666  89.7807829  19.7225854  61.5349728  89.5497082  19.9217003
  62.9393698  88.9845448  19.9099835  65.3490745  98.4905336  22.6422540
  64.6752443  98.7937033  23.2507498  65.7356567  99.2934417  22.2927997
  64.5649201  85.9870467  32.1320209  63.6471763  86.2085414  31.9741897
  64.9809345  86.0616778  31.2731917  65.3484249  87.3861883  27.2622889
  66.0956068  87.8983280  26.9530012  65.6175839  87.0645936  28.1227283
  63.6210899  89.8820424  24.2449844  62.7122119  89.5979457  24.3422313
  63.6505983  90.3019502  23.3853151  68.8530167  93.4927013  28.0141011
  68.3992494  92.6517923  28.0706202  68.2224133  94.1288412  28.3515791
  67.7963086  84.4218999  29.2441679  67.0585843  83.9096386  29.5751921
  68.0489860  83.9819381  28.4324956  67.2963106  95.3303510  28.9490829
  67.5886080  95.8908567  28.2303195  67.8061727  95.6232071  29.7043989
  67.8974714  77.1995251  29.8383448  68.2033590  76.3392615  29.5509363
  68.6227318  77.7912872  29.6382442  54.1899070  87.6025938  28.2265046
  53.9923469  87.0095299  27.5016113  53.6345734  87.2978148  28.9440985
  62.1695793  87.4949044  30.3459639  62.2244403  86.5422881  30.2702116
  61.3586995  87.6508484  30.8300938  63.3186987  91.4229168  21.5837922
  62.8806417  90.7065026  21.1243560  64.0597428  91.6505282  21.0223014
  60.1088153  86.1126104  28.1050018  59.2956019  86.4120275  28.5115210
  60.6047147  85.7181793  28.8224500  62.2596731  96.1083861  30.0384283
  62.2172910  96.3344707  29.1092815  63.1759430  95.8747236  30.1870084
  65.7062365  86.5767929  36.9364912  66.0611753  86.8039402  37.7959378
  66.3534496  86.9086305  36.3142167  71.4360102  89.6986365  27.6414241
  71.2978000  89.8887961  26.7135430  71.0796321  90.4605747  28.0982292
  71.4629481  91.7662892  32.6525512  71.8965988  91.6738181  33.5008566
  72.1761062  91.7420392  32.0145528  60.3762532  92.9846890  29.8346245
  61.1703130  92.4897210  29.6328820  59.6654224  92.4564753  29.4713951
  65.1957376  95.3664986  34.1858613  65.2494399  95.9355922  34.9536329
  64.3272158  95.5366871  33.8212650  56.6845295  87.1289972  25.9105998
  55.7542883  87.0674427  26.1275960  56.7802767  86.6065925  25.1142639
  56.6030844  83.6544785  28.4984240  56.8637662  84.5690118  28.3893400
  57.4248017  83.1869227  28.6480853  72.3245031  91.8086592  35.1858398
  72.5180921  92.7132403  35.4317673  72.2245649  91.3494011  36.0196983
  63.9781342  81.6944483  37.6848725  63.3309257  82.3934432  37.5913202
  64.7482357  82.1280627  38.0524973  67.3860140  91.9593335  40.7599278
  67.2345646  91.7303887  39.8429362  67.3764819  92.9163936  40.7730623
  64.1545476  89.5325248  35.7445545  65.0837536  89.6836407  35.5714512
  63.7336506  89.6209269  34.8894191  62.9533808  93.5575912  33.5144082
  62.8144894  93.1894697  34.3870021  62.1648404  94.0723552  33.3428040
  63.5481960  98.6585009  24.8569619  63.7233716  98.1873052  25.6715242
  62.8614748  99.2850775  25.0850880  64.5039023  92.9357515  30.9032920
  64.1688856  92.8958285  31.7990570  64.0042969  92.2702231  30.4303330
  58.4783267  88.3425145  36.4285501  58.3403065  87.6105384  37.0297040
  59.3888190  88.2534045  36.1469689  67.4398215  90.2813549  21.1769980
  66.8227385  89.5560377  21.0803033  66.9714703  91.0422909  20.8337054
  61.1065568  88.0545104  35.9169181  61.8165186  87.4138296  35.8755799
  61.0634876  88.3057999  36.8395362  69.0952346  94.9912458  38.8375760
  69.0364893  94.3071678  38.1706343  69.4971865  95.7331448  38.3856386
  58.1143045 101.8074371  31.6309479  58.3539643 102.4392896  32.3088498
  57.2712242 101.4562411  31.9174838  59.2296761  84.4998974  20.2991284
  58.3526227  84.3787774  19.9353531  59.7054514  83.7085052  20.0470173
  69.0969754  92.9552041  37.0689740  68.2096532  92.6177963  37.1916139
  69.6668305  92.2235073  37.3058505  62.6270907  97.6153494  34.0350983
  62.5541079  98.4208465  34.5470288  62.1848300  97.8145460  33.2099005
  62.4160687  96.8525264  27.5453805  61.6328209  97.3946944  27.6392029
  63.1153432  97.3699244  27.9448046  65.7257337  82.6619893  30.1888010
  66.2226036  81.9089856  29.8689080  64.9544318  82.6984210  29.6231219
  73.5787094  88.3660259  31.8306302  73.5676970  89.2484974  31.4600235
  72.7104474  88.0131810  31.6360839  65.0869591  97.5140328  36.1909142
  65.7997563  98.1487793  36.1185043  64.5959619  97.6104194  35.3749144
  66.8087117  91.4191581  27.7626433  65.8743396  91.5393043  27.5931138
  66.9863786  90.5164047  27.4986443  62.3092306  84.8037276  29.9159695
  61.9390093  84.2508317  30.6040600  62.8051398  84.1995410  29.3634695
  70.1959669  87.2608900  28.2976468  70.6620121  88.0936891  28.2236770
  70.6467169  86.7953881  29.0021726  60.1381504  95.2634771  37.0114713
  60.8390964  95.8971254  37.1644107  59.6676619  95.6049503  36.2510352
  68.2635900  93.6052721  25.2962620  68.5395744  93.4909316  26.2056494
  67.3940399  93.2070206  25.2574793  68.1676332  79.6289487  32.3367369
  67.2539411  79.8593714  32.5049576  68.5969433  79.7127931  33.1881401
  67.9382790  87.8179379  34.8367263  67.2854240  88.0655286  34.1819716
  68.3163170  87.0043517  34.5029740  64.8989964  97.8539072  28.9395433
  65.0812358  97.0360728  29.4023186  65.7222950  98.0706764  28.5020323
  65.2332129  96.7807257  26.2010482  65.7619896  96.2699712  25.5880644
  65.4960349  96.4649787  27.0656015  63.9870363  88.5599190  41.3233300
  63.3111000  88.4593319  41.9935675  64.8097997  88.4038404  41.7869297
  55.7349222  94.7971126  33.9445815  56.3202659  94.0514814  34.0773720
  55.5374061  95.1075083  34.8282479  58.5887877  97.8322374  28.9608258
  57.9198253  98.3168501  28.4772298  58.4500747  98.0791594  29.8751636
  62.7293146  99.8666117  35.5590916  63.2811454 100.0297739  36.3240001
  63.0699339 100.4570555  34.8870941  67.5804020  94.6927375  41.4139570
  68.1243924  95.3057333  40.9194525  66.9990865  95.2506953  41.9306583
  53.9575454  86.0940829  25.7404190  54.2528896  85.1851507  25.6871244
  53.0563490  86.0728568  25.4185192  65.8661533  97.8148093  32.5454598
  65.7412673  97.0137833  32.0365544  66.5240624  98.3094286  32.0568568
  67.9296442  95.6157113  34.1734148  66.9826777  95.4962464  34.1012475
  68.2779215  94.7279611  34.2560410  55.6863296  83.7754926  25.8643515
  55.3576002  82.8952305  25.6818621  56.0402667  83.7202595  26.7519904
  64.9342875  95.4109829  30.3738501  64.7867837  94.4826537  30.5546071
  65.7596368  95.4329920  29.8895576  58.8005119  84.0627896  26.2318993
  59.1401192  84.5913817  25.5097601  59.2477240  84.4008302  27.0077559
  68.5376997  96.2338388  31.4603373  69.4623544  96.0281249  31.3227824
  68.3692300  95.9854789  32.3692715  62.1465032  79.5314259  34.1349384
  62.9691101  79.0574738  34.0128274  62.3903095  80.3104743  34.6348070
  60.7873266  82.5602518  24.4312285  61.5081629  82.9383771  23.9276002
  60.1638570  83.2791395  24.5347263  64.9304389  83.2647667  25.3670618
  65.1468004  84.1472305  25.0659446  64.4498456  82.8733880  24.6376260
  63.3826124  83.6473268  34.0375379  63.1243902  84.5690339  34.0359710
  62.8511165  83.2503703  34.7275843  68.3272313  96.7524055  26.8165465
  68.5009190  96.1870478  26.0639317  68.8201204  97.5524950  26.6344955
  60.9336889  82.0950308  27.2609822  61.0552801  81.1666954  27.4600710
  60.6438932  82.1088994  26.3488137  63.8028080  79.7805219  30.3976542
  63.8249777  79.8444552  29.4428521  64.2196139  78.9409727  30.5917048
  74.1811704  89.5160478  28.4355764  74.6242850  88.7667803  28.0374888
  73.3038214  89.5070615  28.0529496  69.3147485  96.0690820  23.9162363
  70.0098390  96.6897512  24.1349678  69.6570636  95.2186171  24.1914741
  54.9315295  87.8908621  37.7759180  54.1897031  88.0391256  38.3623811
  54.6108039  88.1516886  36.9125930  71.2138909  93.5190525  25.4449694
  71.7390233  93.8577798  24.7199014  71.1261261  92.5837541  25.2612828
  62.8758957  97.4324599  37.5739570  63.1846084  97.1873746  38.4462270
  63.6734439  97.6371237  37.0858441  62.8979569  99.5862509  29.8044947
  62.4584560  99.0938887  30.4977804  63.6487686  99.0435476  29.5637022
  55.3771908  95.7774049  29.8069575  56.2029928  95.4777821  29.4268219
  55.0265960  95.0081672  30.2559364  60.3453441  95.1300518  31.8767249
  59.7233451  94.4671223  31.5769477  61.0158308  95.1561649  31.1940896
  53.5780513  93.6960376  30.7658509  52.7412422  93.2682550  30.5842510
  53.5504159  93.8892819  31.7029300  70.9032815  94.1523429  40.7500892
  70.1128358  94.1347568  40.2105391  70.6666169  94.6911723  41.5049928
  71.0230690  91.0015895  38.0633620  71.0728695  90.8365903  39.0049143
  70.9144613  90.1343154  37.6731501  59.9066948  93.6804441  25.3525709
  60.0555069  94.3639905  24.6992382  60.7133392  93.6609531  25.8675165
  68.3134452  86.9846823  39.3792927  69.2144315  86.8453288  39.0876925
  68.3882427  87.1501278  40.3191104  62.6477257  84.3613678  38.2246113
  61.7780567  84.6547244  37.9528702  62.8836738  84.9454123  38.9453377
  72.5248887  93.4212837  38.3075642  72.2333695  93.7842817  39.1439103
  71.9121018  92.7079845  38.1288974  73.7244569  90.9865717  30.8278212
  74.5591460  91.4255521  30.9915772  73.8603698  90.5104370  30.0086458
  70.7736075  88.5445451  36.7755700  71.2490196  88.7373098  35.9674551
  69.8501640  88.6004637  36.5299083  57.6619581  89.7069619  26.3586778
  57.4165623  88.8031949  26.5566988  57.8315496  89.7086769  25.4166256
  65.3516291  80.5793295  35.7411534  65.8698235  81.3154322  35.4158022
  64.9971424  80.8857288  36.5758293  56.9315229  85.4397976  23.8572940
  56.2384474  85.5142331  23.2012976  56.6866981  84.6758320  24.3794456
  65.6028885  76.9993577  31.2612430  65.8830639  76.3316767  31.8872857
  66.3879492  77.1922673  30.7487094  63.4062354  96.1752571  22.8237457
  62.8336321  96.7942759  22.3707928  63.9795148  96.7251933  23.3577379
  69.4737744  85.4211211  35.0084005  70.4255167  85.5209309  35.0296229
  69.3041194  84.6289480  35.5182090  67.4952123  82.5066795  35.1943406
  66.9002055  82.7871807  34.4989895  67.2101820  82.9960696  35.9660147
  66.6259614  96.4589722  23.9546039  67.5590287  96.3935283  24.1578914
  66.5382827  97.2945988  23.4960572  69.2547630  95.7755592  20.9149986
  69.1761262  95.4415455  21.8085744  70.0757297  96.2677360  20.9141459
  71.9525822  88.6417331  34.1226305  71.9202142  87.7033332  34.3085989
  72.5626445  88.7201368  33.3892130  63.7909152  87.5113384  20.1653509
  64.7368257  87.3819592  20.2341927  63.4123397  86.7728046  20.6422937
  72.1020310  85.4328375  34.1684588  71.5859359  84.6486831  33.9814517
  72.9860259  85.1047091  34.3331108  69.7631037  79.1769390  30.1280401
  69.5655858  78.8684478  31.0123733  70.3730743  79.9031029  30.2578331
  77.7702371  89.7033338  33.2632342  78.5005760  89.4418626  33.8240045
  77.1609317  88.9662060  33.3034410  75.8517669  87.8441201  33.8606793
  75.1250832  87.7097166  33.2523285  75.4364955  88.1518029  34.6663511
  63.6747845  91.5631130  41.6254166  64.5950854  91.7409729  41.8194213
  63.6397428  90.6187176  41.4733865  61.9752070  85.4363361  20.1008394
  61.0683525  85.1396473  20.1771108  62.2528051  85.1393179  19.2342681
  56.6709917  89.4732165  34.2676947  56.8895927  90.4049273  34.2864981
  57.0835691  89.1140139  35.0531751  63.5914135  79.9800250  26.2552636
  62.7814864  79.6347335  26.6307882  64.2798552  79.6707794  26.8440247
  65.5204684  79.0578297  27.8776932  66.0735722  79.4773750  28.5366955
  65.7574770  78.1314045  27.9199888  61.5437783  85.0465371  43.6579696
  61.4434510  85.9959728  43.5891787  61.3259325  84.7183610  42.7855766
  60.7450854  82.2950296  20.2420374  61.6070018  82.6205194  20.5016191
  60.9301198  81.5081792  19.7293439  68.8983491  81.1678822  27.3855597
  68.3182160  81.8263626  27.0033649  68.6319423  80.3456167  26.9743014
  67.3487057  80.5683880  29.5876917  67.8486835  80.6800414  28.7791236
  67.9922665  80.2644933  30.2277725  61.4069053  88.4762510  42.4744758
  60.9236135  89.2762870  42.6808647  61.4929992  88.4870454  41.5212202
  57.3342390  92.3667044  34.5113192  58.2885644  92.3350987  34.4443123
  57.1354914  91.9057668  35.3263418  57.9241772  90.9368160  37.0783989
  58.7434661  91.4312239  37.1018827  58.1978580  90.0200128  37.0501557
  67.6808369  83.3278913  26.4411945  66.7934224  83.6128563  26.2232140
  68.0962358  83.1672676  25.5939222  71.0322905  83.3525434  30.1566284
  71.8083295  83.8421886  30.4290901  70.3071039  83.7783488  30.6138154
  73.4695463  84.0653053  31.2140225  74.0639954  83.8248789  30.5033533
  73.5422047  83.3460183  31.8413761  55.6892619  97.9086664  31.5283389
  55.5547087  97.1487065  30.9621388  55.2724681  98.6327564  31.0612178
  66.8251582  93.0923587  20.5359965  67.5287432  93.2973590  21.1517620
  66.1014231  93.6600349  20.8009048  67.6549392  88.8433449  26.6562235
  67.5984594  89.3002000  25.8169867  68.2077735  88.0824133  26.4785078
  71.4654198  84.6323180  27.4812354  71.2091133  84.2319816  28.3120562
  70.8407066  85.3466974  27.3562494  75.7766536  87.3719254  29.9883646
  75.2166094  87.4412443  30.7615208  75.1710040  87.1960238  29.2683142
  58.8461745  98.8055981  31.7401832  58.7294129  99.7501413  31.6380522
  58.0254191  98.5029542  32.1287631  68.7338280  93.5306116  22.5858425
  69.5683883  93.0987315  22.4035900  68.5722622  93.3588130  23.5135319
  68.3884172  90.0338230  23.9514764  68.3332976  89.8682501  23.0103208
  67.7630227  90.7414263  24.1076954  65.7030079  92.3387142  43.2768327
  66.5721239  92.5127794  42.9154962  65.2236830  93.1581558  43.1544056
  61.6980297  79.5346339  23.5300083  61.6858967  80.4788179  23.6868353
  62.5903719  79.3516484  23.2359544  59.8716259  99.4584243  34.9557761
  60.7743506  99.4907853  35.2724256  59.6453629  98.5284694  34.9704096
  61.6269861  98.2115229  31.6167839  60.6765492  98.2117091  31.5032211
  61.9302347  97.4647964  31.1003874  65.5132417  76.1289115  27.7846019
  64.7464812  75.5747602  27.9302702  65.9243122  76.2010984  28.6460171
  77.3622555 104.0475768  32.6813602  78.0000965 103.9282515  31.9776942
  77.2443398 104.9956612  32.7401554  74.1712261 104.0003196  32.6175126
  73.8330772 103.8844260  31.7295661  75.0402029 103.5994361  32.5976132
  70.0299077 105.8538672  28.6072017  69.4663942 105.7628609  27.8388305
  69.9151472 105.0338577  29.0874510  74.6532044 105.1538047  38.5761332
  74.6420685 104.7590846  37.7041835  74.8152683 104.4204120  39.1695103
  67.5763509 107.3489864  31.4456238  68.3684800 107.0080688  31.0302537
  67.8160159 107.4584839  32.3658391  69.5354262 106.6098777  24.3173616
  70.3085138 106.0627764  24.1786492  69.8879661 107.4743026  24.5288078
  71.3739305 107.9375159  37.5240516  71.0829171 108.8420790  37.4087182
  72.0096289 107.9791687  38.2384585  72.2995512 105.3152008  34.1141875
  72.8959084 105.0908030  33.3998838  72.3570483 104.5736753  34.7167323
  71.8720540 102.7691443  21.9492066  72.1246061 102.2472964  21.1875529
  70.9345099 102.6057589  22.0518750  76.9163823 101.7727221  29.7566810
  77.7026912 101.3546645  29.4057227  77.1802527 102.6773314  29.9248458
  77.0873900 107.2100072  24.4555466  76.4519733 107.2834698  25.1676371
  76.7571307 107.7993671  23.7774546  82.3172250 101.7102455  30.6599788
  83.0497422 101.1401671  30.8937618  81.5611606 101.3224055  31.1006294
  71.5916829 104.6719549  24.1516441  71.4753087 103.9964452  24.8197526
  71.7019089 104.1851923  23.3348594  73.9348370 104.1329696  27.8563131
  73.5706577 103.6060317  28.5676052  74.7915486 103.7428165  27.6829616
  79.8397671  95.4224029  35.1194397  79.5080995  96.2919440  34.8955612
  79.2443284  95.1060313  35.7988427  73.5753857  99.1619596  22.8524479
  73.7428259 100.0299832  23.2194950  73.3851026  99.3246878  21.9285768
  76.3329190 107.6236575  34.5190309  76.0329913 108.5261614  34.4106117
  75.9880250 107.3568758  35.3711462  69.7841672 104.0750372  30.5527014
  68.8592168 103.9426586  30.7604706  70.0326085 104.8544591  31.0496956
  79.7326334 100.1419115  32.1987747  78.8243211 100.0734523  31.9046508
  79.6813930 100.6191060  33.0269572  73.5543078 101.6177253  23.8371146
  73.4342703 102.0634304  24.6756626  72.8595666 101.9662571  23.2784684
  67.1450483 103.7183645  31.3870803  67.2742864 103.9718124  32.3010215
  66.4647934 104.3111353  31.0675458  71.3149970 114.3880895  27.4861277
  71.2374000 115.3388720  27.5649758  70.7111614 114.0426768  28.1436203
  73.8067200 101.5608761  40.1422644  73.0300534 102.1202681  40.1325509
  74.4457763 102.0465543  40.6637514  81.5987980  98.3435553  33.9765621
  80.9562361  98.6368086  33.3305415  81.0942909  98.2288474  34.7818817
  79.2528144 102.0898727  24.6651480  80.1646000 102.3226113  24.4899178
  78.7437791 102.6735771  24.1026559  72.0613572 104.3694214  39.7040611
  72.8028256 104.9079258  39.4275435  71.3550557 104.9960503  39.8612163
  77.5368912 106.5123354  38.3012773  77.9452268 106.0705765  37.5567405
  76.8146173 105.9375982  38.5546965  73.8899982 101.4495961  35.6746329
  74.7361177 101.8735375  35.8180978  73.8298619 100.7929585  36.3684893
  77.8597726 107.0724545  32.0565061  77.2306589 107.2370259  31.3541129
  77.4723388 107.4866155  32.8276025  81.7386958 108.0078983  29.4109425
  81.0537996 108.3877884  28.8606459  81.8230808 108.6174309  30.1441373
  77.0399427  99.1100329  37.3327503  76.7960359  99.8642390  36.7961779
  77.3159358  99.4885677  38.1674750  78.9937890 105.6538942  36.0104769
  79.2054785 106.2970702  35.3339150  78.9467638 104.8201258  35.5426699
  76.5964119  98.2656762  32.9141341  75.7348598  98.5638016  33.2058078
  76.6226553  98.4827161  31.9822373  73.4125688 106.8098953  29.3215147
  73.8764034 107.0886656  28.5319769  73.1482486 105.9082398  29.1388237
  70.3049769 106.3570435  32.2594910  70.8751126 106.7857703  31.6212394
  70.8957881 106.0753019  32.9579095  72.3494574 102.9322105  26.1304712
  73.0518618 103.3843149  26.5978638  72.0175203 102.2905924  26.7584605
  70.7974936 101.5233862  40.5055921  70.1673596 102.2050143  40.7391318
  70.6911024 101.4116944  39.5609059  66.0919908 101.1905658  31.4321845
  65.3018962 101.4463187  30.9561956  66.5831156 102.0053996  31.5373886
  80.1083718 108.5310897  34.1827126  80.9301161 108.1291085  33.9009808
  80.1046121 108.4279131  35.1343242  68.0434654 101.5550237  28.3905322
  67.2465817 101.6668932  28.9088818  67.8160246 101.8936890  27.5246212
  73.8740321 108.0794941  36.3387837  73.9384754 108.5415348  37.1746008
  73.1651245 107.4492305  36.4670146  64.3757611 101.4436149  33.8636836
  64.6265650 102.3283158  34.1294412  64.9117160 101.2640750  33.0911928
  88.1989711 104.8749646  30.5312098  87.4453419 104.3057044  30.3756102
  88.3337252 104.8412310  31.4782732  73.5888339 109.7463048  26.2066817
  73.4534014 110.5914584  26.6351665  74.1298151 109.9482326  25.4432751
  70.0755678  95.8254628  42.8681172  69.6822624  95.2720826  43.5428816
  70.8921819  96.1365206  43.2587690  67.0417736 107.2638486  26.7794742
  67.5542257 108.0581736  26.9300307  67.6940449 106.5664777  26.7128343
  68.8512621 110.3804242  28.8617495  69.0279249 111.3022207  28.6738479
  69.6469454 110.0662662  29.2911875  72.9923639  97.2412507  40.4601429
  73.7333353  97.8419660  40.3805891  73.2241562  96.4990145  39.9019471
  68.1364977 102.4268874  38.7379658  68.0218493 101.5254131  39.0386757
  67.2809495 102.6732571  38.3864475  75.2156815 110.3686615  40.3367159
  74.7720669 109.5822993  40.0188063  75.8774029 110.5565765  39.6711050
  69.9743936 111.8982416  34.8627837  70.5251362 111.7699479  34.0904831
  69.1355412 112.1977305  34.5122730  77.3138053 110.6489414  38.3648560
  77.2956529 111.4698296  37.8728829  78.2357973 110.5243490  38.5898701
  73.7711107 108.1633544  39.2072069  74.3039444 107.4021832  38.9771377
  73.2425189 107.8707196  39.9496223  76.9380802  93.2693610  34.7365710
  76.5945072  94.1595252  34.6604821  77.3059765  93.0795268  33.8735295
  65.0066653 105.5927140  27.5554313  65.8441875 106.0024149  27.3388020
  65.1844921 104.6526583  27.5254506  76.9031085 103.2602221  23.2438145
  76.3877709 104.0306826  23.4826533  76.6308394 102.5867357  23.8671207
  74.4878196  98.1051922  28.3023384  73.6319793  97.7158772  28.1229023
  74.9005148  98.1843883  27.4423169  76.0177343  95.6398265  32.7014944
  75.5142138  95.6028400  31.8882749  76.3107950  96.5491008  32.7611600
  72.2620229  95.7236995  31.7081125  73.1273225  95.5279803  31.3487015
  72.3297738  95.4947347  32.6350482  76.6917388 101.1329313  25.0697927
  76.3867524 101.4475462  25.9208070  77.6447830 101.2110733  25.1125260
  75.1363820 107.2919536  26.7190881  74.6085182 106.5572296  26.4064118
  74.6351323 108.0694213  26.4730849  80.1156666 105.4868557  31.8357927
  79.4580341 106.1767818  31.9238056  80.9197065 105.8764989  32.1791913
  69.8682548  97.9539203  29.0797492  70.4426300  97.7314384  28.3470685
  70.4553530  98.0227897  29.8326093  78.9262125 103.8412930  29.8861869
  79.4394007 104.4742921  30.3883578  79.5763349 103.2414125  29.5205229
  70.1952135  99.9843664  23.0993377  69.3589447 100.3218350  23.4202652
  70.0556905  99.8492644  22.1620514  72.1705215  94.8280452  27.8072562
  71.5169628  94.5129469  27.1829176  72.1285690  94.2056192  28.5332385
  75.4042956 101.3162385  32.1320209  74.4865517 101.5377332  31.9741897
  75.8203099 101.3908696  31.2731917  76.1878004 102.7153801  27.2622889
  76.9349823 103.2275198  26.9530012  76.4569593 102.3937854  28.1227283
  74.4604654 105.2112342  24.2449844  73.5515873 104.9271374  24.3422313
  74.4899738 105.6311420  23.3853151  79.6923921 108.8218931  28.0141011
  79.2386248 107.9809841  28.0706202  79.0617888 109.4580329  28.3515791
  78.6356841  99.7510917  29.2441679  77.8979598  99.2388303  29.5751921
  78.8883614  99.3111299  28.4324956  78.1356860 110.6595428  28.9490829
  78.4279835 111.2200485  28.2303195  78.6455481 110.9523989  29.7043989
  78.7368468  92.5287169  29.8383448  79.0427345  91.6684533  29.5509363
  79.4621073  93.1204789  29.6382442  65.0292824 102.9317856  28.2265046
  64.8317224 102.3387216  27.5016113  64.4739488 102.6270066  28.9440985
  73.0089548 102.8240962  30.3459639  73.0638158 101.8714799  30.2702116
  72.1980750 102.9800401  30.8300938  70.9481908 101.4418022  28.1050018
  70.1349773 101.7412192  28.5115210  71.4440902 101.0473711  28.8224500
  73.0990486 111.4375779  30.0384283  73.0566664 111.6636625  29.1092815
  74.0153184 111.2039153  30.1870084  76.5456119 101.9059846  36.9364912
  76.9005507 102.1331320  37.7959378  77.1928251 102.2378223  36.3142167
  82.2753856 105.0278282  27.6414241  82.1371755 105.2179878  26.7135430
  81.9190075 105.7897665  28.0982292  70.4395982  99.0136377  33.7211253
  71.0795362  98.8725137  33.0234216  69.6073513  98.7270891  33.3449855
  82.3023236 107.0954809  32.6525512  82.7359743 107.0030098  33.5008566
  83.0154817 107.0712310  32.0145528  71.2156286 108.3138808  29.8346245
  72.0096885 107.8189128  29.6328820  70.5047979 107.7856671  29.4713951
  76.0351131 110.6956903  34.1858613  76.0888153 111.2647840  34.9536329
  75.1665912 110.8658788  33.8212650  67.5239050 102.4581890  25.9105998
  66.5936638 102.3966345  26.1275960  67.6196522 101.9357842  25.1142639
  67.4424599  98.9836702  28.4984240  67.7031416  99.8982036  28.3893400
  68.2641771  98.5161145  28.6480853  68.9149524 100.3974460  35.6683064
  69.5872578 100.1891822  35.0195713  68.0879311 100.1996546  35.2288297
  83.1638786 107.1378510  35.1858398  83.3574676 108.0424320  35.4317673
  83.0639404 106.6785929  36.0196983  74.8175096  97.0236401  37.6848725
  74.1703011  97.7226350  37.5913202  75.5876112  97.4572544  38.0524973
  78.2253894 107.2885253  40.7599278  78.0739401 107.0595804  39.8429362
  78.2158574 108.2455854  40.7730623  74.9939231 104.8617165  35.7445545
  75.9231291 105.0128325  35.5714512  74.5730261 104.9501186  34.8894191
  73.7927562 108.8867830  33.5144082  73.6538648 108.5186614  34.3870021
  73.0042159 109.4015469  33.3428040  75.3432778 108.2649433  30.9032920
  75.0082610 108.2250203  31.7990570  74.8436723 107.5994148  30.4303330
  69.3177022 103.6717063  36.4285501  69.1796819 102.9397301  37.0297040
  70.2281945 103.5825963  36.1469689  71.9459322 103.3837022  35.9169181
  72.6558941 102.7430214  35.8755799  71.9028630 103.6349917  36.8395362
  79.9346101 110.3204375  38.8375760  79.8758647 109.6363595  38.1706343
  80.3365619 111.0623365  38.3856386  70.6588256 100.3702240  37.7364821
  70.1225613  99.9192978  38.3886417  70.0704965 100.5048149  36.9935285
  68.9536800 117.1366289  31.6309479  69.1933398 117.7684813  32.3088498
  68.1105996 116.7854329  31.9174838  70.0690515  99.8290891  20.2991284
  69.1919981  99.7079692  19.9353531  70.5448268  99.0376969  20.0470173
  79.9363508 108.2843959  37.0689740  79.0490287 107.9469881  37.1916139
  80.5062059 107.5526990  37.3058505  61.5892655 104.6168051  30.3932791
  62.2763695 104.3029781  29.8053807  61.4340784 105.5209416  30.1200043
  66.3927377  99.5058247  34.8217815  66.3085566  98.8983917  34.0868225
  65.5710084  99.9967266  34.8227311  73.4664662 112.9445412  34.0350983
  73.3934833 113.7500383  34.5470288  73.0242055 113.1437377  33.2099005
  73.2554441 112.1817182  27.5453805  72.4721963 112.7238862  27.6392029
  73.9547186 112.6991161  27.9448046  76.5651091  97.9911811  30.1888010
  77.0619791  97.2381773  29.8689080  75.7938073  98.0276128  29.6231219
  84.4180849 103.6952177  31.8306302  84.4070725 104.5776892  31.4600235
  83.5498228 103.3423727  31.6360839  75.9263345 112.8432246  36.1909142
  76.6391317 113.4779710  36.1185043  75.4353374 112.9396112  35.3749144
  77.6480872 106.7483498  27.7626433  76.7137151 106.8684961  27.5931138
  77.8257540 105.8455965  27.4986443  73.1486060 100.1329194  29.9159695
  72.7783848  99.5800234  30.6040600  73.6445152  99.5287327  29.3634695
  81.0353423 102.5900818  28.2976468  81.5013875 103.4228809  28.2236770
  81.4860924 102.1245799  29.0021726  70.9775259 110.5926689  37.0114713
  71.6784718 111.2263172  37.1644107  70.5070374 110.9341421  36.2510352
  79.1029654 108.9344639  25.2962620  79.3789498 108.8201233  26.2056494
  78.2334153 108.5362124  25.2574793  79.0070086  94.9581404  32.3367369
  78.0933166  95.1885631  32.5049576  79.4363187  95.0419849  33.1881401
  78.7776545 103.1471296  34.8367263  78.1247995 103.3947204  34.1819716
  79.1556924 102.3335435  34.5029740  75.7383718 113.1830990  28.9395433
  75.9206113 112.3652646  29.4023186  76.5616704 113.3998682  28.5020323
  76.0725884 112.1099175  26.2010482  76.6013650 111.5991629  25.5880644
  76.3354103 111.7941705  27.0656015  74.8264118 103.8891108  41.3233300
  74.1504755 103.7885237  41.9935675  75.6491751 103.7330321  41.7869297
  66.5742977 110.1263044  33.9445815  67.1596413 109.3806732  34.0773720
  66.3767815 110.4367001  34.8282479  69.4281632 113.1614291  28.9608258
  68.7592007 113.6460419  28.4772298  69.2894502 113.4083512  29.8751636
  61.1660631 102.6968644  32.6650258  61.2044731 102.1632235  33.4587377
  60.6600924 102.1703850  32.0461236  73.5686900 115.1958035  35.5590916
  74.1205208 115.3589656  36.3240001  73.9093094 115.7862473  34.8870941
  68.5451394  97.5433185  36.1612801  68.6092720  98.4048016  35.7490198
  68.4818514  96.9307186  35.4285159  68.0203666  99.6156317  39.8085835
  68.6475705  99.2333395  40.4223359  67.1631585  99.3970519  40.1741528
  78.4197775 110.0219292  41.4139570  78.9637679 110.6349251  40.9194525
  77.8384620 110.5798871  41.9306583  64.7969209 101.4232746  25.7404190
  65.0922650 100.5143425  25.6871244  63.8957245 101.4020486  25.4185192
  76.7055288 113.1440010  32.5454598  76.5806427 112.3429750  32.0365544
  77.3634379 113.6386204  32.0568568  68.3263456  99.4988743  31.7231738
  67.6050042 100.1124711  31.5839212  69.1156712 100.0346508  31.6448384
  78.7690196 110.9449031  34.1734148  77.8220532 110.8254382  34.1012475
  79.1172969 110.0571529  34.2560410  71.1289769  96.8343170  37.9972390
  71.6524171  97.0805466  38.7598700  70.9102103  97.6663204  37.5775528
  66.5257051  99.1046844  25.8643515  66.1969757  98.2244223  25.6818621
  66.8796421  99.0494513  26.7519904  75.7736629 110.7401747  30.3738501
  75.6261592 109.8118454  30.5546071  76.5990123 110.7621838  29.8895576
  69.6398874  99.3919814  26.2318993  69.9794946  99.9205735  25.5097601
  70.0870994  99.7300220  27.0077559  79.3770751 111.5630306  31.4603373
  80.3017299 111.3573167  31.3227824  79.2086055 111.3146707  32.3692715
  72.3342315  97.7756865  35.6822061  71.9939135  96.9764678  36.0842741
  71.6281321  98.0758575  35.1098894  72.9858786  94.8606177  34.1349384
  73.8084856  94.3866655  34.0128274  73.2296850  95.6396661  34.6348070
  71.6267021  97.8894435  24.4312285  72.3475383  98.2675688  23.9276002
  71.0032325  98.6083312  24.5347263  75.7698144  98.5939584  25.3670618
  75.9861758  99.4764222  25.0659446  75.2892211  98.2025798  24.6376260
  70.5097365 101.5525298  31.9441362  70.3641946 101.8665601  32.8365644
  70.0322569 102.1710198  31.3912261  72.3693748  98.5427846  31.9922252
  72.3555317  97.6468939  31.6554550  73.0866176  98.5498509  32.6260538
  74.2219879  98.9765186  34.0375379  73.9637657  99.8982257  34.0359710
  73.6904919  98.5795620  34.7275843  64.9843027 104.0930642  34.8829024
  64.4396495 104.8690450  35.0149298  65.8622377 104.4401447  34.7248145
  71.7730644  97.4242226  27.2609822  71.8946555  96.4958872  27.4600710
  71.4832686  97.4380912  26.3488137  74.6421834  95.1097136  30.3976542
  74.6643531  95.1736469  29.4428521  75.0589893  94.2701645  30.5917048
  85.0205459 104.8452396  28.4355764  85.4636605 104.0959721  28.0374888
  84.1431969 104.8362532  28.0529496  65.7709049 103.2200538  37.7759180
  65.0290785 103.3683174  38.3623811  65.4501793 103.4808804  36.9125930
  73.7152712 112.7616517  37.5739570  74.0239838 112.5165663  38.4462270
  74.5128194 112.9663155  37.0858441  73.7373324 114.9154426  29.8044947
  73.2978314 114.4230805  30.4977804  74.4881441 114.3727394  29.5637022
  66.2165663 111.1065967  29.8069575  67.0423683 110.8069739  29.4268219
  65.8659715 110.3373589  30.2559364  71.1847196 110.4592435  31.8767249
  70.5627205 109.7963140  31.5769477  71.8552063 110.4853567  31.1940896
  64.4174268 109.0252294  30.7658509  63.5806176 108.5974468  30.5842510
  64.3897913 109.2184737  31.7029300  71.2571723  98.9374223  41.4699755
  71.3059879  99.8136346  41.0877524  71.7994238  98.3951616  40.8971398
  81.7426569 109.4815347  40.7500892  80.9522113 109.4639485  40.2105391
  81.5059924 110.0203640  41.5049928  81.8624444 106.3307813  38.0633620
  81.9122449 106.1657820  39.0049143  81.7538368 105.4635072  37.6731501
  70.7460703 109.0096359  25.3525709  70.8948823 109.6931823  24.6992382
  71.5527146 108.9901449  25.8675165  79.1528207 102.3138741  39.3792927
  80.0538069 102.1745206  39.0876925  79.2276181 102.4793196  40.3191104
  73.4871012  99.6905596  38.2246113  72.6174321  99.9839162  37.9528702
  73.7230492 100.2746041  38.9453377  83.3642641 108.7504754  38.3075642
  83.0727449 109.1134735  39.1439103  82.7514772 108.0371763  38.1288974
  84.5638323 106.3157634  30.8278212  85.3985215 106.7547438  30.9915772
  84.6997452 105.8396287  30.0086458  81.6129829 103.8737369  36.7755700
  82.0883951 104.0665015  35.9674551  80.6895395 103.9296555  36.5299083
  68.5013336 105.0361536  26.3586778  68.2559378 104.1323866  26.5566988
  68.6709250 105.0378687  25.4166256  76.1910046  95.9085213  35.7411534
  76.7091990  96.6446240  35.4158022  75.8365179  96.2149206  36.5758293
  67.7708983 100.7689894  23.8572940  67.0778228 100.8434249  23.2012976
  67.5260735 100.0050237  24.3794456  76.4422640  92.3285495  31.2612430
  76.7224394  91.6608684  31.8872857  77.2273247  92.5214591  30.7487094
  80.3131498 100.7503129  35.0084005  81.2648921 100.8501227  35.0296229
  80.1434949  99.9581398  35.5182090  78.3345878  97.8358712  35.1943406
  77.7395810  98.1163725  34.4989895  78.0495574  98.3252613  35.9660147
  82.7919576 103.9709249  34.1226305  82.7595896 103.0325250  34.3085989
  83.4020200 104.0493286  33.3892130  74.6302907 102.8405302  20.1653509
  75.5762012 102.7111510  20.2341927  74.2517152 102.1019964  20.6422937
  82.9414065 100.7620292  34.1684588  82.4253113  99.9778749  33.9814517
  83.8254013 100.4339009  34.3331108  80.6024791  94.5061308  30.1280401
  80.4049613  94.1976396  31.0123733  81.2124497  95.2322947  30.2578331
  88.6096126 105.0325256  33.2632342  89.3399514 104.7710544  33.8240045
  88.0003071 104.2953978  33.3034410  86.6911423 103.1733118  33.8606793
  85.9644587 103.0389083  33.2523285  86.2758710 103.4809947  34.6663511
  74.5141599 106.8923048  41.6254166  75.4344609 107.0701647  41.8194213
  74.4791182 105.9479093  41.4733865  72.8145824 100.7655278  20.1008394
  71.9077279 100.4688391  20.1771108  73.0921805 100.4685096  19.2342681
  63.7323764 102.0861642  30.5507441  63.4126549 101.2326950  30.2581815
  63.1857193 102.3010220  31.3065408  67.5103672 104.8024083  34.2676947
  67.7289682 105.7341190  34.2864981  67.9229446 104.4432057  35.0531751
  74.4307890  95.3092168  26.2552636  73.6208618  94.9639253  26.6307882
  75.1192307  94.9999712  26.8440247  76.3598438  94.3870215  27.8776932
  76.9129477  94.8065668  28.5366955  76.5968524  93.4605963  27.9199888
  72.3831537 100.3757288  43.6579696  72.2828264 101.3251645  43.5891787
  72.1653079 100.0475527  42.7855766  71.5844609  97.6242213  20.2420374
  72.4463773  97.9497112  20.5016191  71.7694953  96.8373709  19.7293439
  63.6012024 105.7064553  32.5200562  62.9075496 105.2918506  32.0070517
  64.3485015 105.7485090  31.9233981  79.7377245  96.4970740  27.3855597
  79.1575914  97.1555544  27.0033649  79.4713178  95.6748084  26.9743014
  78.1880812  95.8975798  29.5876917  78.6880590  96.0092332  28.7791236
  78.8316419  95.5936850  30.2277725  72.2462807 103.8054427  42.4744758
  71.7629889 104.6054787  42.6808647  72.3323746 103.8162372  41.5212202
  65.5148767 105.6382807  30.3966577  65.4919455 105.7370494  29.4448460
  65.8249403 106.4847958  30.7183743  68.1736145 107.6958962  34.5113192
  69.1279398 107.6642904  34.4443123  67.9748668 107.2349586  35.3263418
  68.7635527 106.2660078  37.0783989  69.5828416 106.7604157  37.1018827
  69.0372335 105.3492046  37.0501557  78.5202123  98.6570830  26.4411945
  77.6327978  98.9420481  26.2232140  78.9356112  98.4964594  25.5939222
  81.8716659  98.6817351  30.1566284  82.6477049  99.1713804  30.4290901
  81.1464793  99.1075405  30.6138154  84.3089218  99.3944970  31.2140225
  84.9033709  99.1540706  30.5033533  84.3815802  98.6752101  31.8413761
  66.5286374 113.2378581  31.5283389  66.3940842 112.4778982  30.9621388
  66.1118436 113.9619481  31.0612178  78.4943147 104.1725366  26.6562235
  78.4378348 104.6293918  25.8169867  79.0471489 103.4116051  26.4785078
  82.3047953  99.9615098  27.4812354  82.0484887  99.5611734  28.3120562
  81.6800821 100.6758892  27.3562494  86.6160291 102.7011171  29.9883646
  86.0559849 102.7704361  30.7615208  86.0103794 102.5252156  29.2683142
  69.6855499 114.1347898  31.7401832  69.5687884 115.0793331  31.6380522
  68.8647946 113.8321460  32.1287631  79.2277926 105.3630147  23.9514764
  79.1726730 105.1974419  23.0103208  78.6023981 106.0706180  24.1076954
  64.0170441 100.5998212  37.7776186  64.6629305 100.0897166  38.2663412
  63.8087592 101.3366893  38.3519612  76.5423833 107.6679059  43.2768327
  77.4114993 107.8419712  42.9154962  76.0630585 108.4873476  43.1544056
  72.5374052  94.8638256  23.5300083  72.5252722  95.8080096  23.6868353
  73.4297474  94.6808402  23.2359544  70.7110014 114.7876160  34.9557761
  71.6137260 114.8199771  35.2724256  70.4847384 113.8576611  34.9704096
  72.4663616 113.5407147  31.6167839  71.5159247 113.5409008  31.5032211
  72.7696102 112.7939881  31.1003874  76.3526171  91.4581033  27.7846019
  75.5858567  90.9039520  27.9302702  76.7636876  91.5302902  28.6460171
  68.3567932  97.7465829  41.8751201  69.2199394  97.3902634  42.0854525
  67.7833343  97.4079724  42.5626605  85.4925798 120.4829965  38.5761332
  85.4814439 120.0882763  37.7041835  85.6546438 119.7496038  39.1695103
  90.6791425 110.7515946  35.1194397  90.3474750 111.6211357  34.8955612
  90.0837038 110.4352230  35.7988427  77.9844237 119.0475563  31.3870803
  78.1136618 119.3010042  32.3010215  77.3041688 119.6403271  31.0675458
  84.6460954 116.8900678  40.1422644  83.8694288 117.4494598  40.1325509
  85.2851517 117.3757461  40.6637514  92.4381735 113.6727471  33.9765621
  91.7956115 113.9660004  33.3305415  91.9336663 113.5580391  34.7818817
  82.9007326 119.6986132  39.7040611  83.6422011 120.2371176  39.4275435
  82.1944312 120.3252420  39.8612163  84.7293736 116.7787879  35.6746329
  85.5754931 117.2027292  35.8180978  84.6692374 116.1221503  36.3684893
  87.8793182 114.4392247  37.3327503  87.6354113 115.1934308  36.7961779
  88.1553112 114.8177595  38.1674750  87.4357873 113.5948680  32.9141341
  86.5742352 113.8929934  33.2058078  87.4620308 113.8119079  31.9822373
  81.6368690 116.8525780  40.5055921  81.0067351 117.5342061  40.7391318
  81.5304778 116.7408861  39.5609059  76.9313663 116.5197576  31.4321845
  76.1412717 116.7755104  30.9561956  77.4224910 117.3345914  31.5373886
  75.2151366 116.7728066  33.8636836  75.4659404 117.6575076  34.1294412
  75.7510914 116.5932668  33.0911928  80.9149433 111.1546546  42.8681172
  80.5216379 110.6012744  43.5428816  81.7315573 111.4657124  43.2587690
  83.8317394 112.5704425  40.4601429  84.5727107 113.1711578  40.3805891
  84.0635317 111.8282062  39.9019471  78.9758732 117.7560792  38.7379658
  78.8612247 116.8546049  39.0386757  78.1203250 118.0024489  38.3864475
  87.7774557 108.5985528  34.7365710  87.4338826 109.4887169  34.6604821
  88.1453520 108.4087185  33.8735295  86.8571097 110.9690183  32.7014944
  86.3535893 110.9320318  31.8882749  87.1501704 111.8782925  32.7611600
  83.1013983 111.0528912  31.7081125  83.9666980 110.8571721  31.3487015
  83.1691492 110.8239264  32.6350482  80.7076302 113.2831120  29.0797492
  81.2820054 113.0606302  28.3470685  81.2947285 113.3519815  29.8326093
  83.0098970 110.1572369  27.8072562  82.3563382 109.8421386  27.1829176
  82.9679444 109.5348110  28.5332385  89.5762223 107.8579087  29.8383448
  89.8821099 106.9976450  29.5509363  90.3014827 108.4496707  29.6382442
  87.3849874 117.2351764  36.9364912  87.7399262 117.4623237  37.7959378
  88.0322005 117.5670141  36.3142167  81.2789737 114.3428295  33.7211253
  81.9189116 114.2017054  33.0234216  80.4467268 114.0562809  33.3449855
  78.2818353 114.3128620  28.4984240  78.5425171 115.2273953  28.3893400
  79.1035526 113.8453063  28.6480853  79.7543279 115.7266377  35.6683064
  80.4266332 115.5183739  35.0195713  78.9273065 115.5288463  35.2288297
  85.6568851 112.3528318  37.6848725  85.0096766 113.0518268  37.5913202
  86.4269866 112.7864462  38.0524973  80.1570776 119.0008980  36.4285501
  80.0190574 118.2689219  37.0297040  81.0675699 118.9117880  36.1469689
  82.7853077 118.7128940  35.9169181  83.4952695 118.0722132  35.8755799
  82.7422385 118.9641834  36.8395362  81.4982011 115.6994157  37.7364821
  80.9619368 115.2484896  38.3886417  80.9098719 115.8340066  36.9935285
  72.4286410 119.9459969  30.3932791  73.1157450 119.6321699  29.8053807
  72.2734538 120.8501333  30.1200043  77.2321132 114.8350165  34.8217815
  77.1479321 114.2275835  34.0868225  76.4103838 115.3259183  34.8227311
  89.8463841 110.2873322  32.3367369  88.9326920 110.5177549  32.5049576
  90.2756942 110.3711766  33.1881401  85.6657872 119.2183025  41.3233300
  84.9898509 119.1177155  41.9935675  86.4885506 119.0622239  41.7869297
  77.4136731 125.4554962  33.9445815  77.9990168 124.7098650  34.0773720
  77.2161570 125.7658918  34.8282479  72.0054386 118.0260562  32.6650258
  72.0438485 117.4924153  33.4587377  71.4994679 117.4995767  32.0461236
  79.3845148 112.8725102  36.1612801  79.4486475 113.7339933  35.7490198
  79.3212268 112.2599104  35.4285159  78.8597421 114.9448235  39.8085835
  79.4869459 114.5625312  40.4223359  78.0025340 114.7262437  40.1741528
  79.1657210 114.8280661  31.7231738  78.4443796 115.4416628  31.5839212
  79.9550466 115.3638426  31.6448384  81.9683524 112.1635087  37.9972390
  82.4917926 112.4097384  38.7598700  81.7495857 112.9955122  37.5775528
  83.1736069 113.1048782  35.6822061  82.8332889 112.3056595  36.0842741
  82.4675075 113.4050493  35.1098894  83.8252541 110.1898095  34.1349384
  84.6478610 109.7158573  34.0128274  84.0690604 110.9688578  34.6348070
  81.3491120 116.8817215  31.9441362  81.2035700 117.1957518  32.8365644
  80.8716323 117.5002116  31.3912261  83.2087502 113.8719763  31.9922252
  83.1949071 112.9760857  31.6554550  83.9259931 113.8790427  32.6260538
  85.0613633 114.3057104  34.0375379  84.8031411 115.2274174  34.0359710
  84.5298674 113.9087538  34.7275843  75.8236782 119.4222560  34.8829024
  75.2790250 120.1982368  35.0149298  76.7016132 119.7693364  34.7248145
  85.4815589 110.4389054  30.3976542  85.5037286 110.5028387  29.4428521
  85.8983648 109.5993563  30.5917048  76.6102804 118.5492456  37.7759180
  75.8684540 118.6975091  38.3623811  76.2895548 118.8100722  36.9125930
  82.0965478 114.2666141  41.4699755  82.1453633 115.1428264  41.0877524
  82.6387992 113.7243534  40.8971398  84.3264766 115.0197513  38.2246113
  83.4568076 115.3131079  37.9528702  84.5624247 115.6037958  38.9453377
  87.0303800 111.2377130  35.7411534  87.5485744 111.9738157  35.4158022
  86.6758933 111.5441124  36.5758293  87.2816394 107.6577413  31.2612430
  87.5618148 106.9900602  31.8872857  88.0667001 107.8506508  30.7487094
  89.1739632 113.1650630  35.1943406  88.5789564 113.4455643  34.4989895
  88.8889329 113.6544531  35.9660147  74.5717519 117.4153559  30.5507441
  74.2520303 116.5618867  30.2581815  74.0250947 117.6302137  31.3065408
  78.3497426 120.1316000  34.2676947  78.5683436 121.0633108  34.2864981
  78.7623200 119.7723975  35.0531751  83.2225292 115.7049206  43.6579696
  83.1222019 116.6543563  43.5891787  83.0046834 115.3767445  42.7855766
  74.4405779 121.0356471  32.5200562  73.7469250 120.6210424  32.0070517
  75.1878770 121.0777007  31.9233981  83.0856562 119.1346345  42.4744758
  82.6023644 119.9346705  42.6808647  83.1717501 119.1454290  41.5212202
  79.0129899 123.0250880  34.5113192  79.9673153 122.9934822  34.4443123
  78.8142423 122.5641503  35.3263418  79.6029281 121.5951996  37.0783989
  80.4222170 122.0896074  37.1018827  79.8766089 120.6783964  37.0501557
  74.8564196 115.9290130  37.7776186  75.5023059 115.4189083  38.2663412
  74.6481347 116.6658811  38.3519612  87.1919926 106.7872951  27.7846019
  86.4252321 106.2331437  27.9302702  87.6030631 106.8594820  28.6460171
  79.1961687 113.0757747  41.8751201  80.0593148 112.7194551  42.0854525
  78.6227097 112.7371641  42.5626605  31.2957027  20.8432499  25.3006638
  31.2845668  20.4485298  24.4287142  31.4577667  20.1098572  25.8940410
  28.0164288  23.6269611  24.2485822  27.7254154  24.5315242  24.1332489
  28.6521273  23.6686139  24.9629892  32.9754173  23.3131027  21.2435616
  32.6754897  24.2156065  21.1351423  32.6305233  23.0463210  22.0956769
  30.4492183  17.2503212  26.8667951  29.6725517  17.8097133  26.8570815
  31.0882746  17.7359995  27.3882821  28.7038555  20.0588666  26.4285918
  29.4453240  20.5973710  26.1520741  27.9975541  20.6854955  26.5857469
  34.1793895  22.2017806  25.0258079  34.5877251  21.7600217  24.2812712
  33.4571156  21.6270434  25.2792272  30.5324965  17.1390413  22.3991636
  31.3786160  17.5629827  22.5426285  30.4723603  16.4824037  23.0930199
  34.5022710  22.7618997  18.7810368  33.8731572  22.9264711  18.0786436
  34.1148372  23.1760606  19.5521332  38.3811941  23.6973435  16.1354732
  37.6962980  24.0772336  15.5851765  38.4655791  24.3068761  16.8686680
  33.6824410  14.7994781  24.0572810  33.4385342  15.5536842  23.5207085
  33.9584341  15.1780129  24.8920057  35.6362873  21.3433394  22.7350075
  35.8479768  21.9865154  22.0584456  35.5892621  20.5095710  22.2672005
  27.4399919  17.2128314  27.2301228  26.8098580  17.8944595  27.4636625
  27.3336007  17.1011396  26.2854366  36.7508701  24.2205349  20.9072433
  37.5726145  23.8185536  20.6255114  36.7471104  24.1173583  21.8588548
  30.5165304  23.7689392  23.0633143  30.5809737  24.2309800  23.8991315
  29.8076228  23.1386757  23.1915453  44.8414694  20.5644098  17.2557404
  44.0878402  19.9951496  17.1001409  44.9762235  20.5306762  18.2028039
  26.7180662  11.5149080  29.5926479  26.3247607  10.9615278  30.2674123
  27.5346802  11.8259658  29.9832996  29.6348623  12.9306959  27.1846735
  30.3758336  13.5314112  27.1051198  29.8666546  12.1884597  26.6264778
  24.7789961  18.1163326  25.4624965  24.6643476  17.2148583  25.7632064
  23.9234479  18.3627023  25.1109782  31.8581799  26.0581066  27.0612466
  31.4145653  25.2717445  26.7433370  32.5199012  26.2460217  26.3956356
  26.6168920  27.5876868  21.5873144  27.1676345  27.4593931  20.8150138
  25.7780396  27.8871757  21.2368037  33.9563037  26.3383866  25.0893867
  33.9381512  27.1592747  24.5974136  34.8782957  26.2137942  25.3144008
  30.4136091  23.8527996  25.9317375  30.9464428  23.0916284  25.7016683
  29.8850172  23.5601648  26.6741530  36.7581649  21.1763009  18.5603234
  36.1005324  21.8662270  18.6483362  37.5622049  21.5659441  18.9037220
  34.7781844  26.3489880  15.6736136  35.0704818  26.9094937  14.9548502
  35.2880464  26.6418441  16.4289295  33.1881103  17.5954298  23.6610218
  33.5430490  17.8225771  24.5204684  33.8353234  17.9272675  23.0387474
  38.9448219  22.7849261  19.3770819  39.3784726  22.6924550  20.2253873
  39.6579800  22.7606762  18.7390835  32.6776114  26.3851355  20.9103920
  32.7313136  26.9542292  21.6781636  31.8090896  26.5553240  20.5457957
  39.8063769  22.8272962  21.9103704  39.9999659  23.7318772  22.1562979
  39.7064387  22.3680381  22.7442289  31.4600080  12.7130852  24.4094032
  30.8127995  13.4120802  24.3158508  32.2301095  13.1466996  24.7770280
  34.8678877  22.9779705  27.4844585  34.7164384  22.7490256  26.5674669
  34.8583557  23.9350306  27.4975930  31.6364214  20.5511617  22.4690851
  32.5656274  20.7022777  22.2959819  31.2155244  20.6395638  21.6139498
  30.4352546  24.5762282  20.2389389  30.2963631  24.2081066  21.1115327
  29.6467142  25.0909921  20.0673347  25.9602005  19.3611514  23.1530808
  25.8221803  18.6291753  23.7542347  26.8706928  19.2720415  22.8714996
  28.5884305  19.0731474  22.6414488  29.2983924  18.4324666  22.6001106
  28.5453614  19.3244369  23.5640668  36.5771084  26.0098827  25.5621067
  36.5183630  25.3258047  24.8951650  36.9790603  26.7517817  25.1101693
  25.5961783  32.8260741  18.3554786  25.8358381  33.4579265  19.0333804
  24.7530979  32.4748781  18.6420145  36.5788491  23.9738411  23.7935047
  35.6915270  23.6364333  23.9161445  37.1487042  23.2421442  24.0303812
  30.1089645  28.6339863  20.7596290  30.0359816  29.4394835  21.2715594
  29.6667038  28.8331829  19.9344311  41.0605832  19.3846628  18.5551608
  41.0495708  20.2671344  18.1845541  40.1923211  19.0318179  18.3606145
  32.5688328  28.5326697  22.9154448  33.2816301  29.1674162  22.8430350
  32.0778357  28.6290563  22.0994450  27.6200242  26.2821141  23.7360019
  28.3209701  26.9157624  23.8889413  27.1495357  26.6235872  22.9755659
  35.4201528  18.8365748  21.5612570  34.7672978  19.0841656  20.9065022
  35.7981908  18.0229887  21.2275047  32.3808702  28.8725442  15.6640740
  32.5631096  28.0547097  16.1268492  33.2041688  29.0893134  15.2265630
  31.4689101  19.5785559  28.0478607  30.7929738  19.4779689  28.7180982
  32.2916735  19.4224773  28.5114604  23.2167960  25.8157496  20.6691122
  23.8021397  25.0701184  20.8019026  23.0192798  26.1261453  21.5527786
  30.2111884  30.8852487  22.2836223  30.7630192  31.0484108  23.0485308
  30.5518077  31.4756925  21.6116248  24.6628649  15.3050769  26.5331142
  25.2900688  14.9227847  27.1468666  23.8056568  15.0864971  26.8986834
  35.0622758  25.7113744  28.1384877  35.6062662  26.3243703  27.6439832
  34.4809603  26.2693323  28.6551890  33.3480271  28.8334462  19.2699905
  33.2231410  28.0324202  18.7610850  34.0059362  29.3280656  18.7813875
  35.4115179  26.6343482  20.8979455  34.4645515  26.5148834  20.8257782
  35.7597953  25.7465981  20.9805716  32.4161613  26.4296199  17.0983807
  32.2686575  25.5012906  17.2791377  33.2415106  26.4516289  16.6140882
  36.0195735  27.2524757  18.1848680  36.9442282  27.0467619  18.0473131
  35.8511038  27.0041159  19.0938021  30.3577695  28.4510968  24.2984877
  30.6664821  28.2060115  25.1707577  31.1553177  28.6557607  23.8103747
  30.3798307  30.6048878  16.5290254  29.9403297  30.1125257  17.2223110
  31.1306424  30.0621846  16.2882329  27.8996707  14.6268675  28.1945061
  27.9484862  15.5030798  27.8122831  28.4419221  14.0846068  27.6216705
  38.3851552  25.1709798  27.4746198  37.5947096  25.1533937  26.9350698
  38.1484907  25.7098092  28.2295235  38.5049427  22.0202265  24.7878927
  38.5547432  21.8552272  25.7294450  38.3963351  21.1529524  24.3976808
  35.7953190  18.0033193  26.1038234  36.6963053  17.8639658  25.8122231
  35.8701164  18.1687648  27.0436411  30.1295995  15.3800048  24.9491420
  29.2599305  15.6733614  24.6774008  30.3655476  15.9640493  25.6698684
  40.0067624  24.4399206  25.0320948  39.7152433  24.8029187  25.8684409
  39.3939756  23.7266215  24.8534281  41.2063307  22.0052086  17.5523519
  42.0410198  22.4441890  17.7161079  41.3422435  21.5290739  16.7331764
  38.2554813  19.5631821  23.5001006  38.7308934  19.7559467  22.6919858
  37.3320378  19.6191007  23.2544390  36.9556482  16.4397581  21.7329312
  37.9073904  16.5395679  21.7541536  36.7859932  15.6475850  22.2427396
  39.4344559  19.6603701  20.8471612  39.4020879  18.7219701  21.0331296
  40.0445183  19.7387737  20.1137437  39.5839048  16.4514744  20.8929895
  39.0678096  15.6673201  20.7059824  40.4678996  16.1233461  21.0576414
  45.2521109  20.7219708  19.9877648  45.9824498  20.4604996  20.5485352
  44.6428055  19.9848430  20.0279716  43.3336406  18.8627570  20.5852100
  42.6069570  18.7283535  19.9768591  42.9183693  19.1704399  21.3908818
  31.1566583  22.5817500  28.3499473  32.0769592  22.7596099  28.5439519
  31.1216166  21.6373545  28.1979172  29.0256521  16.0651740  30.3825003
  28.9253247  17.0146097  30.3137094  28.8078063  15.7369979  29.5101073
  28.8887791  19.4948879  29.1990064  28.4054872  20.2949239  29.4053953
  28.9748730  19.5056824  28.2457508  24.8161128  23.3853414  21.2358498
  25.7704382  23.3537356  21.1688430  24.6173652  22.9244038  22.0508724
  25.4060510  21.9554530  23.8029296  26.2253399  22.4498609  23.8264133
  25.6797318  21.0386498  23.7746863  26.3280483  29.8242350  18.4647139
  26.2112867  30.7687783  18.3625829  25.5072929  29.5215912  18.8532938
  33.1848817  23.3573511  30.0013634  34.0539976  23.5314163  29.6400268
  32.7055568  24.1767928  29.8789363  27.3534997  30.4770612  21.6803067
  28.2562244  30.5094222  21.9969562  27.1272367  29.5471063  21.6949403
  29.1088599  29.2301599  18.3413146  28.1584230  29.2303460  18.2277518
  29.4121085  28.4834333  17.8249180  24.9992915  13.4360281  28.5996507
  25.8624377  13.0797086  28.8099832  24.4258326  13.0974176  29.2871911
  44.8441292  35.0662137  19.4058908  45.4819702  34.9468885  18.7022248
  44.7262135  36.0142981  19.4646860  41.6530999  35.0189565  19.3420433
  41.3149510  34.9030630  18.4540968  42.5220767  34.6180730  19.3221439
  37.5117814  36.8725042  15.3317324  36.9482680  36.7814979  14.5633612
  37.3970209  36.0524946  15.8119816  42.1350782  36.1724417  25.3006638
  42.1239422  35.7777215  24.4287142  42.2971421  35.4390490  25.8940410
  35.0582246  38.3676233  18.1701544  35.8503538  38.0267058  17.7547844
  35.2978896  38.4771208  19.0903698  43.0917373  40.5396009  10.6431789
  42.4405353  41.1250090  10.2565803  43.8861736  41.0702204  10.7026826
  37.0173000  37.6285147  11.0418923  37.7903876  37.0814134  10.9031799
  37.3698399  38.4929396  11.2533384  38.8558043  38.9561529  24.2485822
  38.5647909  39.8607160  24.1332489  39.4915027  38.9978056  24.9629892
  39.7814250  36.3338377  20.8387182  40.3777822  36.1094400  20.1244145
  39.8389221  35.5923123  21.4412630  44.3982561  32.7913591  16.4812116
  45.1845650  32.3733014  16.1302533  44.6621265  33.6959683  16.6493765
  44.5692638  38.2286441  11.1800773  43.9338471  38.3021068  11.8921678
  44.2390045  38.8180040  10.5019852  49.7990988  32.7288824  17.3845095
  50.5316160  32.1588041  17.6182924  49.0430344  32.3410425  17.8251600
  39.0735567  35.6905919  10.8761748  38.9571825  35.0150822  11.5442832
  39.1837827  35.2038293  10.0593901  41.4167108  35.1516066  14.5808437
  41.0525315  34.6246687  15.2921359  42.2734224  34.7614535  14.4074923
  47.3216408  26.4410398  21.8439703  46.9899733  27.3105809  21.6200918
  46.7262022  26.1246682  22.5233734  43.8147928  38.6422944  21.2435616
  43.5148651  39.5447983  21.1351423  43.4698987  38.3755128  22.0956769
  37.2660409  35.0936741  17.2772321  36.3410906  34.9612955  17.4850012
  37.5144823  35.8730960  17.7742263  47.2145072  31.1605484  18.9233053
  46.3061949  31.0920893  18.6291814  47.1632667  31.6377429  19.7514879
  41.0361816  32.6363623  10.5616453  40.9161441  33.0820674  11.4001933
  40.3414404  32.9848941  10.0029991  34.6269220  34.7370015  18.1116110
  34.7561602  34.9904494  19.0255521  33.9466672  35.3297723  17.7920765
  38.7968708  45.4067265  14.2106584  38.7192737  46.3575090  14.2895064
  38.1930351  45.0613137  14.8681510  41.2885937  32.5795130  26.8667951
  40.5119272  33.1389050  26.8570815  41.9276501  33.0651913  27.3882821
  49.0806718  29.3621923  20.7010927  48.4381098  29.6554456  20.0550722
  48.5761647  29.2474843  21.5064124  46.7346882  33.1085096  11.3896787
  47.6464738  33.3412483  11.2144484  46.2256529  33.6922140  10.8271865
  39.5432310  35.3880583  26.4285918  40.2846994  35.9265627  26.1520741
  38.8369295  36.0146872  26.5857469  45.0187649  37.5309724  25.0258079
  45.4271005  37.0892134  24.2812712  44.2964911  36.9562351  25.2792272
  41.3718719  32.4682331  22.3991636  42.2179915  32.8921744  22.5426285
  41.3117357  31.8115955  23.0930199  45.3416464  38.0910915  18.7810368
  44.7125327  38.2556629  18.0786436  44.9542126  38.5052524  19.5521332
  49.2205696  39.0265352  16.1354732  48.5356734  39.4064254  15.5851765
  49.3049545  39.6360679  16.8686680  44.5218165  30.1286699  24.0572810
  44.2779097  30.8828760  23.5207085  44.7978095  30.5072047  24.8920057
  46.4756628  36.6725311  22.7350075  46.6873523  37.3157071  22.0584456
  46.4286376  35.8387628  22.2672005  44.0782857  29.2843132  19.6386647
  43.2167336  29.5824386  19.9303385  44.1045291  29.5013531  18.7067680
  40.8944426  37.8285323  16.0460453  41.3582771  38.1073026  15.2565076
  40.6301224  36.9268767  15.8633544  37.7868507  37.3756804  18.9840216
  38.3569864  37.8044073  18.3457701  38.3776619  37.0939389  19.6824402
  39.8313312  33.9508475  12.8550018  40.5337355  34.4029519  13.3223945
  39.4993941  33.3092294  13.4829911  38.2793674  32.5420232  27.2301228
  37.6492334  33.2236512  27.4636625  38.1729761  32.4303313  26.2854366
  33.5738646  32.2092028  18.1567152  32.7837700  32.4649556  17.6807262
  34.0649893  33.0240366  18.2619192  47.5902456  39.5497267  20.9072433
  48.4119899  39.1477454  20.6255114  47.5864858  39.4465501  21.8588548
  35.5253391  32.5736607  15.1150629  34.7284555  32.6855301  15.6334124
  35.2978984  32.9123259  14.2491519  41.3559059  39.0981310  23.0633143
  41.4203491  39.5601717  23.8991315  40.6469983  38.4678675  23.1915453
  31.8576349  32.4622518  20.5882143  32.1084387  33.3469528  20.8539719
  32.3935897  32.2827120  19.8157234  55.6808449  35.8936015  17.2557404
  54.9272157  35.3243413  17.1001409  55.8155990  35.8598680  18.2028039
  41.0707077  40.7649418  12.9312124  40.9352751  41.6100953  13.3596971
  41.6116889  40.9668695  12.1678057  37.5574416  26.8440997  29.5926479
  37.1641362  26.2907196  30.2674123  38.3740557  27.1551576  29.9832996
  34.5236474  38.2824856  13.5040049  35.0360995  39.0768106  13.6545613
  35.1759187  37.5851146  13.4373650  36.3331359  41.3990612  15.5862802
  36.5097987  42.3208577  15.3983786  37.1288192  41.0849031  16.0157182
  40.4742377  28.2598877  27.1846735  41.2152091  28.8606030  27.1051198
  40.7060300  27.5176514  26.6264778  35.6183715  33.4455244  25.4624965
  35.5037230  32.5440501  25.7632064  34.7628233  33.6918941  25.1109782
  42.6975553  41.3872984  27.0612466  42.2539407  40.6009363  26.7433370
  43.3592767  41.5752135  26.3956356  37.4562674  42.9168786  21.5873144
  38.0070099  42.7885849  20.8150138  36.6174150  43.2163675  21.2368037
  44.7956791  41.6675784  25.0893867  44.7775266  42.4884665  24.5974136
  45.7176711  41.5429859  25.3144008  41.2529845  39.1819914  25.9317375
  41.7858182  38.4208202  25.7016683  40.7243926  38.8893565  26.6741530
  44.4199540  24.2879979  21.4611017  44.0763810  25.1781621  21.3850128
  44.7878503  24.0981637  20.5980602  32.4885391  36.6113510  14.2799619
  33.3260613  37.0210518  14.0633327  32.6663659  35.6712952  14.2499813
  44.3849823  34.2788591   9.9683452  43.8696446  35.0493195  10.2071840
  44.1127131  33.6053727  10.5916514  41.9696934  29.1238291  15.0268690
  41.1138530  28.7345142  14.8474329  42.3823886  29.2030252  14.1668476
  43.4996081  26.6584635  19.4260250  42.9960876  26.6214770  18.6128056
  43.7926687  27.5677377  19.4856907  39.7438966  26.7423364  18.4326432
  40.6091963  26.5466173  18.0732321  39.8116475  26.5133716  19.3595789
  49.3584097  37.0320945  11.9036626  48.5813540  36.6932105  11.4591788
  50.0375578  37.0373568  11.2291591  44.1736126  32.1515683  11.7943233
  43.8686262  32.4661832  12.6453376  45.1266568  32.2297103  11.8370566
  42.6182558  38.3105906  13.4436187  42.0903920  37.5758666  13.1309425
  42.1170061  39.0880582  13.1976156  47.5975404  36.5054926  18.5603234
  46.9399078  37.1954188  18.6483362  48.4015803  36.8951358  18.9037220
  37.3501286  28.9725572  15.8042799  37.9245037  28.7500754  15.0715992
  37.9372268  29.0414267  16.5571400  46.4080863  34.8599299  16.6107175
  46.9212745  35.4929291  17.1128885  47.0582087  34.2600495  16.2450535
  39.6523953  25.8466821  14.5317868  38.9988366  25.5315838  13.9074483
  39.6104427  25.2242562  15.2577691  43.6703237  44.8383623   9.3667846
  42.9964936  45.1415320   9.9752804  44.0569059  45.6412704   9.0173304
  42.8861694  32.3348755  18.8565516  41.9684255  32.5563702  18.6987204
  43.3021837  32.4095065  17.9977223  43.6696741  33.7340170  13.9868196
  44.4168560  34.2461568  13.6775318  43.9388331  33.4124223  14.8472590
  41.9423392  36.2298711  10.9695150  41.0334611  35.9457744  11.0667620
  41.9718475  36.6497790  10.1098457  47.1742659  39.8405301  14.7386318
  46.7204986  38.9996211  14.7951508  46.5436626  40.4766699  15.0761098
  46.1175579  30.7697287  15.9686985  45.3798335  30.2574673  16.2997228
  46.3702352  30.3297668  15.1570262  45.6175598  41.6781797  15.6736136
  45.9098573  42.2386854  14.9548502  46.1274219  41.9710358  16.4289295
  46.2187206  23.5473539  16.5628755  46.5246083  22.6870902  16.2754670
  46.9439811  24.1391159  16.3627749  32.5111562  33.9504225  14.9510353
  32.3135962  33.3573586  14.2261419  31.9558226  33.6456435  15.6686291
  40.4908286  33.8427332  17.0704946  40.5456895  32.8901168  16.9947422
  39.6799488  33.9986771  17.5546244  41.6399479  37.7707455   8.3083229
  41.2018909  37.0543314   7.8488866  42.3809920  37.9983570   7.7468320
  38.4300646  32.4604391  14.8295325  37.6168511  32.7598562  15.2360517
  38.9259640  32.0660080  15.5469807  40.5809223  42.4562148  16.7629589
  40.5385402  42.6822995  15.8338121  41.4971922  42.2225523  16.9115390
  44.0274857  32.9246216  23.6610218  44.3824245  33.1517689  24.5204684
  44.6746988  33.2564593  23.0387474  49.7572594  36.0464652  14.3659548
  49.6190493  36.2366248  13.4380737  49.4008813  36.8084035  14.8227599
  37.9214720  30.0322747  20.4456560  38.5614100  29.8911506  19.7479523
  37.0892251  29.7457260  20.0695162  49.7841974  38.1141179  19.3770819
  50.2178480  38.0216468  20.2253873  50.4973554  38.0898679  18.7390835
  38.6975024  39.3325177  16.5591552  39.4915623  38.8375498  16.3574127
  37.9866717  38.8043041  16.1959258  43.5169869  41.7143273  20.9103920
  43.5706891  42.2834209  21.6781636  42.6484650  41.8845158  20.5457957
  35.0057788  33.4768259  12.6351305  34.0755376  33.4152715  12.8521267
  35.1015260  32.9544212  11.8387946  34.9243337  30.0023072  15.2229546
  35.1850154  30.9168405  15.1138707  35.7460509  29.5347515  15.3726159
  36.3968262  31.4160829  22.3928371  37.0691315  31.2078191  21.7441020
  35.5698049  31.2182915  21.9533603  50.6457523  38.1564880  21.9103704
  50.8393413  39.0610690  22.1562979  50.5458141  37.6972299  22.7442289
  42.2993834  28.0422770  24.4094032  41.6521749  28.7412720  24.3158508
  43.0694849  28.4758914  24.7770280  45.7072632  38.3071622  27.4844585
  45.5558138  38.0782174  26.5674669  45.6977311  39.2642224  27.4975930
  42.4757968  35.8803535  22.4690851  43.4050028  36.0314695  22.2959819
  42.0548998  35.9687556  21.6139498  41.2746300  39.9054199  20.2389389
  41.1357386  39.5372984  21.1115327  40.4860896  40.4201839  20.0673347
  41.8694452  45.0063296  11.5814926  42.0446208  44.5351339  12.3960548
  41.1827240  45.6329062  11.8096186  42.8251515  39.2835802  17.6278227
  42.4901348  39.2436572  18.5235877  42.3255461  38.6180518  17.1548637
  36.7995759  34.6903432  23.1530808  36.6615557  33.9583671  23.7542347
  37.7100683  34.6012332  22.8714996  45.7610707  36.6291836   7.9015287
  45.1439878  35.9038665   7.8048339  45.2927195  37.3901197   7.5582361
  39.4278060  34.4023391  22.6414488  40.1377678  33.7616584  22.6001106
  39.3847368  34.6536286  23.5640668  47.4164839  41.3390745  25.5621067
  47.3577385  40.6549965  24.8951650  47.8184357  42.0809735  25.1101693
  38.1406994  31.3888609  24.4610127  37.6044351  30.9379348  25.1131724
  37.5523702  31.5234518  23.7180592  36.4355537  48.1552659  18.3554786
  36.6752136  48.7871183  19.0333804  35.5924734  47.8040699  18.6420145
  47.4182246  39.3030329  23.7935047  46.5309025  38.9656251  23.9161445
  47.9880797  38.5713360  24.0303812  29.0711393  35.6354420  17.1178098
  29.7582433  35.3216151  16.5299113  28.9159522  36.5395785  16.8445349
  33.8746115  30.5244617  21.5463122  33.7904304  29.9170287  20.8113532
  33.0528822  31.0153635  21.5472618  40.9483399  43.9631781  20.7596290
  40.8753571  44.7686753  21.2715594  40.5060792  44.1623747  19.9344311
  40.7373179  43.2003551  14.2699111  39.9540701  43.7425231  14.3637336
  41.4365924  43.7177531  14.6693353  44.0469829  29.0098181  16.9133317
  44.5438529  28.2568143  16.5934387  43.2756811  29.0462497  16.3476526
  51.8999586  34.7138546  18.5551608  51.8889463  35.5963262  18.1845541
  51.0316966  34.3610097  18.3606145  43.4082083  43.8618615  22.9154448
  44.1210055  44.4966080  22.8430350  42.9172111  43.9582481  22.0994450
  45.1299610  37.7669868  14.4871740  44.1955888  37.8871330  14.3176444
  45.3076278  36.8642335  14.2231750  40.6304798  31.1515564  16.6405001
  40.2602585  30.5986604  17.3285907  41.1263890  30.5473697  16.0880001
  48.5172161  33.6087187  15.0221774  48.9832613  34.4415179  14.9482077
  48.9679662  33.1432169  15.7267033  38.4593996  41.6113059  23.7360019
  39.1603456  42.2449542  23.8889413  37.9889111  41.9527790  22.9755659
  46.5848392  39.9531008  12.0207926  46.8608236  39.8387603  12.9301800
  45.7152891  39.5548493  11.9820099  46.4888824  25.9767774  19.0612676
  45.5751904  26.2072001  19.2294883  46.9181925  26.0606218  19.9126708
  46.2595282  34.1657666  21.5612570  45.6066733  34.4133573  20.9065022
  46.6375662  33.3521804  21.2275047  43.2202456  44.2017359  15.6640740
  43.4024851  43.3839015  16.1268492  44.0435442  44.4185051  15.2265630
  43.5544622  43.1285544  12.9255788  44.0832388  42.6177999  12.3125951
  43.8172841  42.8128075  13.7901321  42.3082855  34.9077477  28.0478607
  41.6323492  34.8071606  28.7180982  43.1310489  34.7516691  28.5114604
  34.0561714  41.1449414  20.6691122  34.6415151  40.3993102  20.8019026
  33.8586553  41.4553370  21.5527786  36.9100370  44.1800661  15.6853564
  36.2410745  44.6646789  15.2017604  36.7713239  44.4269881  16.5996943
  28.6479369  33.7155014  19.3895565  28.6863469  33.1818605  20.1832683
  28.1419662  33.1890219  18.7706542  41.0505638  46.2144405  22.2836223
  41.6023946  46.3776026  23.0485308  41.3911832  46.8048842  21.6116248
  36.0270131  28.5619554  22.8858107  36.0911458  29.4234385  22.4735505
  35.9637252  27.9493556  22.1530466  35.5022404  30.6342687  26.5331142
  36.1294443  30.2519764  27.1468666  34.6450323  30.4156889  26.8986834
  45.9016513  41.0405662  28.1384877  46.4456417  41.6535620  27.6439832
  45.3203357  41.5985240  28.6551890  44.1874025  44.1626380  19.2699905
  44.0625165  43.3616120  18.7610850  44.8453117  44.6572573  18.7813875
  35.8082194  30.5175113  18.4477045  35.0868779  31.1311080  18.3084518
  36.5975449  31.0532877  18.3693691  46.2508934  41.9635400  20.8979455
  45.3039269  41.8440751  20.8257782  46.5991707  41.0757898  20.9805716
  38.6108507  27.8529539  24.7217697  39.1342909  28.0991836  25.4844006
  38.3920841  28.6849574  24.3020834  43.2555367  41.7588116  17.0983807
  43.1080330  40.8304824  17.2791377  44.0808861  41.7808207  16.6140882
  37.1217611  30.4106183  12.9564299  37.4613684  30.9392105  12.2342908
  37.5689732  30.7486590  13.7322866  46.8589489  42.5816675  18.1848680
  47.7836036  42.3759536  18.0473131  46.6904792  42.3333076  19.0938021
  39.8161052  28.7943234  22.4067367  39.4757873  27.9951047  22.8088047
  39.1100059  29.0944945  21.8344201  40.4677524  25.8792547  20.8594690
  41.2903593  25.4053025  20.7373581  40.7115588  26.6583030  21.3593377
  43.2516881  29.6125954  12.0915924  43.4680496  30.4950592  11.7904753
  42.7710949  29.2212167  11.3621566  37.9916103  32.5711667  18.6686669
  37.8460684  32.8851970  19.5610951  37.5141307  33.1896568  18.1157568
  39.8512486  29.5614215  18.7167559  39.8374055  28.6655309  18.3799857
  40.5684914  29.5684879  19.3505845  41.7038616  29.9951555  20.7620686
  41.4456394  30.9168626  20.7605016  41.1723657  29.5981990  21.4521150
  46.6484805  43.1002343  13.5410771  46.8221683  42.5348765  12.7884624
  47.1413696  43.9003237  13.3590261  32.4661765  35.1117012  21.6074330
  31.9215233  35.8876820  21.7394605  33.3441115  35.4587816  21.4493452
  39.2549382  28.4428596  13.9855129  39.3765293  27.5145242  14.1846016
  38.9651424  28.4567281  13.0733444  42.1240572  26.1283506  17.1221849
  42.1462269  26.1922839  16.1673828  42.5408631  25.2888015  17.3162355
  52.5024196  35.8638765  15.1601071  52.9455342  35.1146091  14.7620194
  51.6250707  35.8548902  14.7774803  47.6359978  42.4169107  10.6407670
  48.3310882  43.0375800  10.8594984  47.9783128  41.5664458  10.9160048
  33.2527787  34.2386908  24.5004487  32.5109523  34.3869543  25.0869117
  32.9320531  34.4995174  23.6371236  49.5351401  39.8668812  12.1695000
  50.0602725  40.2056085  11.4444320  49.4473753  38.9315828  11.9858135
  41.1971450  43.7802886  24.2984877  41.5058576  43.5352033  25.1707577
  41.9946932  43.9849525  23.8103747  41.2192062  45.9340796  16.5290254
  40.7797052  45.4417174  17.2223110  41.9700179  45.3913763  16.2882329
  33.6984401  42.1252337  16.5314882  34.5242420  41.8256108  16.1513525
  33.3478453  41.3559959  16.9804670  38.6665934  41.4778805  18.6012555
  38.0445943  40.8149510  18.3014783  39.3370801  41.5039937  17.9186203
  31.8993006  40.0438663  17.4903815  31.0624914  39.6160837  17.3087817
  31.8716651  40.2371106  18.4274606  38.7390461  29.9560593  28.1945061
  38.7878617  30.8322716  27.8122831  39.2812975  29.4137986  27.6216705
  49.2245307  40.5001716  27.4746198  48.4340851  40.4825855  26.9350698
  48.9878661  41.0390010  28.2295235  49.3443182  37.3494182  24.7878927
  49.3941187  37.1844190  25.7294450  49.2357105  36.4821442  24.3976808
  38.2279441  40.0282728  12.0771016  38.3767561  40.7118193  11.4237689
  39.0345884  40.0087818  12.5920472  46.6346944  33.3325111  26.1038234
  47.5356807  33.1931575  25.8122231  46.7094919  33.4979565  27.0436411
  40.9689750  30.7091965  24.9491420  40.0993059  31.0025531  24.6774008
  41.2049230  31.2932410  25.6698684  50.8461379  39.7691124  25.0320948
  50.5546187  40.1321105  25.8684409  50.2333510  39.0558132  24.8534281
  52.0457061  37.3344004  17.5523519  52.8803952  37.7733808  17.7161079
  52.1816190  36.8582657  16.7331764  49.0948567  34.8923739  23.5001006
  49.5702689  35.0851385  22.6919858  48.1714132  34.9482924  23.2544390
  35.9832074  36.0547906  13.0832085  35.7378116  35.1510236  13.2812295
  36.1527988  36.0565056  12.1411563  43.6728784  26.9271582  22.4656840
  44.1910727  27.6632609  22.1403329  43.3183916  27.2335575  23.3003599
  43.9241378  23.3471865  17.9857737  44.2043131  22.6795054  18.6118163
  44.7091985  23.5400960  17.4732401  41.7274846  42.5230859   9.5482763
  41.1548813  43.1421046   9.0953235  42.3007640  43.0730220  10.0822685
  47.7950236  31.7689499  21.7329312  48.7467659  31.8687596  21.7541536
  47.6253686  30.9767767  22.2427396  45.8164615  28.8545082  21.9188713
  45.2214548  29.1350095  21.2235202  45.5314312  29.3438983  22.6905454
  44.9472106  42.8068009  10.6791346  45.8802779  42.7413570  10.8824221
  44.8595319  43.6424276  10.2205878  47.5760123  42.1233879   7.6395293
  47.4973754  41.7893743   8.5331051  48.3969789  42.6155647   7.6386765
  50.2738314  34.9895618  20.8471612  50.2414634  34.0511619  21.0331296
  50.8838937  35.0679655  20.1137437  50.4232802  31.7806662  20.8929895
  49.9071851  30.9965118  20.7059824  51.3072751  31.4525378  21.0576414
  48.0843529  25.5247677  16.8525708  47.8868350  25.2162766  17.7369040
  48.6943235  26.2509316  16.9823637  56.0914864  36.0511625  19.9877648
  56.8218252  35.7896913  20.5485352  55.4821809  35.3140347  20.0279716
  54.1730161  34.1919488  20.5852100  53.4463324  34.0575453  19.9768591
  53.7577448  34.4996316  21.3908818  41.9960337  37.9109418  28.3499473
  42.9163347  38.0888017  28.5439519  41.9609920  36.9665463  28.1979172
  31.2142502  33.1048011  17.2752747  30.8945287  32.2513319  16.9827121
  30.6675930  33.3196589  18.0310715  34.9922410  35.8210452  20.9922254
  35.2108420  36.7527560  21.0110288  35.4048184  35.4618427  21.7777058
  41.9126628  26.3278537  12.9797942  41.1027356  25.9825622  13.3553188
  42.6011044  26.0186081  13.5685554  43.8417176  25.4056584  14.6022239
  44.3948214  25.8252038  15.2612262  44.0787262  24.4792332  14.6445195
  39.8650275  31.3943658  30.3825003  39.7647002  32.3438015  30.3137094
  39.6471817  31.0661897  29.5101073  31.0830762  36.7250923  19.2445869
  30.3894234  36.3104875  18.7315823  31.8303753  36.7671459  18.6479288
  47.2195983  27.5157109  14.1100903  46.6394652  28.1741913  13.7278956
  46.9531916  26.6934454  13.6988321  45.6699549  26.9162167  16.3122223
  46.1699328  27.0278702  15.5036542  46.3135157  26.6123220  16.9523032
  39.7281545  34.8240797  29.1990064  39.2448627  35.6241157  29.4053953
  39.8142484  34.8348742  28.2457508  32.9967505  36.6569176  17.1211884
  32.9738193  36.7556864  16.1693767  33.3068141  37.5034327  17.4429050
  35.6554883  38.7145331  21.2358498  36.6098136  38.6829274  21.1688430
  35.4567406  38.2535955  22.0508724  36.2454265  37.2846448  23.8029296
  37.0647154  37.7790526  23.8264133  36.5191072  36.3678416  23.7746863
  46.0020861  29.6757200  13.1657251  45.1146716  29.9606850  12.9477446
  46.4174850  29.5150963  12.3184528  49.3535397  29.7003721  16.8811591
  50.1295787  30.1900173  17.1536207  48.6283531  30.1261775  17.3383460
  51.7907956  30.4131340  17.9385531  52.3852447  30.1727076  17.2278840
  51.8634539  29.6938471  18.5659068  34.0105111  44.2564951  18.2528696
  33.8759579  43.4965352  17.6866694  33.5937174  44.9805851  17.7857485
  45.1464074  39.4401875   7.2605271  45.8499925  39.6451877   7.8762927
  44.4226723  40.0078636   7.5254355  45.9761885  35.1911736  13.3807542
  45.9197086  35.6480287  12.5415174  46.5290227  34.4302420  13.2030384
  49.7866691  30.9801468  14.2057661  49.5303625  30.5798103  15.0365869
  49.1619559  31.6945262  14.0807800  54.0979028  33.7197541  16.7128952
  53.5378586  33.7890730  17.4860515  53.4922532  33.5438526  15.9928449
  37.1674237  45.1534268  18.4647139  37.0506621  46.0979700  18.3625829
  36.3466684  44.8507830  18.8532938  47.0550772  39.8784404   9.3103731
  47.8896376  39.4465602   9.1281206  46.8935115  39.7066417  10.2380626
  46.7096664  36.3816517  10.6760071  46.6545468  36.2160788   9.7348515
  46.0842719  37.0892550  10.8322260  31.4989179  31.6184581  24.5021493
  32.1448043  31.1083535  24.9908718  31.2906330  32.3553263  25.0764918
  44.0242571  38.6865429  30.0013634  44.8933731  38.8606081  29.6400268
  43.5449323  39.5059846  29.8789363  38.1928751  45.8062530  21.6803067
  39.0955998  45.8386140  21.9969562  37.9666121  44.8762981  21.6949403
  39.9482353  44.5593516  18.3413146  38.9977984  44.5595378  18.2277518
  40.2514840  43.8126251  17.8249180  43.8344909  22.4767403  14.5091326
  43.0677305  21.9225889  14.6548008  44.2455614  22.5489271  15.3705478
  35.8386670  28.7652198  28.5996507  36.7018132  28.4089003  28.8099832
  35.2652081  28.4266093  29.2871911  55.6835047  50.3954055  19.4058908
  56.3213457  50.2760802  18.7022248  55.5655890  51.3434899  19.4646860
  52.4924753  50.3481483  19.3420433  52.1543265  50.2322548  18.4540968
  53.3614521  49.9472648  19.3221439  48.3511569  52.2016959  15.3317324
  47.7876434  52.1106896  14.5633612  48.2363964  51.3816864  15.8119816
  52.9744536  51.5016335  25.3006638  52.9633177  51.1069133  24.4287142
  53.1365176  50.7682407  25.8940410  45.8976001  53.6968151  18.1701544
  46.6897293  53.3558976  17.7547844  46.1372651  53.8063126  19.0903698
  53.9311128  55.8687927  10.6431789  53.2799107  56.4542007  10.2565803
  54.7255490  56.3994122  10.7026826  47.8566755  52.9577064  11.0418923
  48.6297631  52.4106051  10.9031799  48.2092154  53.8221314  11.2533384
  49.6951797  54.2853446  24.2485822  49.4041663  55.1899077  24.1332489
  50.3308782  54.3269974  24.9629892  50.6208004  51.6630295  20.8387182
  51.2171576  51.4386317  20.1244145  50.6782976  50.9215040  21.4412630
  50.1933033  49.1169730   8.6737373  50.4458553  48.5951252   7.9120836
  49.2557592  48.9535876   8.7764057  55.2376315  48.1205509  16.4812116
  56.0239405  47.7024932  16.1302533  55.5015020  49.0251601  16.6493765
  55.4086393  53.5578359  11.1800773  54.7732226  53.6312985  11.8921678
  55.0783799  54.1471958  10.5019852  60.6384743  48.0580742  17.3845095
  61.3709914  47.4879959  17.6182924  59.8824098  47.6702342  17.8251600
  49.9129321  51.0197836  10.8761748  49.7965579  50.3442740  11.5442832
  50.0231581  50.5330210  10.0593901  52.2560862  50.4807983  14.5808437
  51.8919069  49.9538604  15.2921359  53.1127978  50.0906452  14.4074923
  58.1610163  41.7702316  21.8439703  57.8293488  42.6397727  21.6200918
  57.5655776  41.4538600  22.5233734  51.8966349  45.5097883   9.5769786
  52.0640752  46.3778119   9.9440257  51.7063518  45.6725165   8.6531075
  54.6541682  53.9714862  21.2435616  54.3542405  54.8739901  21.1351423
  54.3092742  53.7047045  22.0956769  48.1054164  50.4228659  17.2772321
  47.1804660  50.2904873  17.4850012  48.3538577  51.2022878  17.7742263
  58.0538826  46.4897402  18.9233053  57.1455704  46.4212811  18.6291814
  58.0026422  46.9669347  19.7514879  51.8755570  47.9655541  10.5616453
  51.7555195  48.4112591  11.4001933  51.1808158  48.3140858  10.0029991
  45.4662975  50.0661932  18.1116110  45.5955356  50.3196411  19.0255521
  44.7860426  50.6589640  17.7920765  49.6362462  60.7359182  14.2106584
  49.5586492  61.6867007  14.2895064  49.0324106  60.3905055  14.8681510
  52.1279692  47.9087048  26.8667951  51.3513026  48.4680968  26.8570815
  52.7670255  48.3943831  27.3882821  59.9200473  44.6913841  20.7010927
  59.2774853  44.9846374  20.0550722  59.4155401  44.5766761  21.5064124
  57.5740636  48.4377014  11.3896787  58.4858492  48.6704400  11.2144484
  57.0650283  49.0214058  10.8271865  50.3826064  50.7172501  26.4285918
  51.1240749  51.2557545  26.1520741  49.6763050  51.3438790  26.5857469
  55.8581404  52.8601642  25.0258079  56.2664760  52.4184052  24.2812712
  55.1358665  52.2854269  25.2792272  52.2112474  47.7974248  22.3991636
  53.0573669  48.2213662  22.5426285  52.1511112  47.1407873  23.0930199
  56.1810219  53.4202832  18.7810368  55.5519081  53.5848546  18.0786436
  55.7935881  53.8344442  19.5521332  60.0599450  54.3557270  16.1354732
  59.3750489  54.7356171  15.5851765  60.1443300  54.9652597  16.8686680
  55.3611919  45.4578617  24.0572810  55.1172851  46.2120677  23.5207085
  55.6371850  45.8363964  24.8920057  57.3150382  52.0017229  22.7350075
  57.5267277  52.6448989  22.0584456  57.2680130  51.1679546  22.2672005
  54.9176611  44.6135050  19.6386647  54.0561090  44.9116303  19.9303385
  54.9439046  44.8305449  18.7067680  51.7338180  53.1577240  16.0460453
  52.1976526  53.4364943  15.2565076  51.4694979  52.2560685  15.8633544
  48.6262262  52.7048722  18.9840216  49.1963619  53.1335990  18.3457701
  49.2170373  52.4231307  19.6824402  50.6707067  49.2800393  12.8550018
  51.3731110  49.7321436  13.3223945  50.3387695  48.6384212  13.4829911
  49.1187428  47.8712149  27.2301228  48.4886089  48.5528430  27.4636625
  49.0123516  47.7595231  26.2854366  44.4132400  47.5383945  18.1567152
  43.6231454  47.7941474  17.6807262  44.9043648  48.3532283  18.2619192
  58.4296210  54.8789184  20.9072433  59.2513654  54.4769372  20.6255114
  58.4258613  54.7757419  21.8588548  46.3647146  47.9028525  15.1150629
  45.5678309  48.0147219  15.6334124  46.1372738  48.2415177  14.2491519
  52.1952813  54.4273228  23.0633143  52.2597246  54.8893635  23.8991315
  51.4863737  53.7970593  23.1915453  42.6970103  47.7914436  20.5882143
  42.9478142  48.6761446  20.8539719  43.2329652  47.6119037  19.8157234
  66.5202203  51.2227933  17.2557404  65.7665911  50.6535331  17.1001409
  66.6549744  51.1890597  18.2028039  51.9100831  56.0941335  12.9312124
  51.7746506  56.9392871  13.3596971  52.4510644  56.2960613  12.1678057
  48.3968171  42.1732915  29.5926479  48.0035116  41.6199114  30.2674123
  49.2134311  42.4843494  29.9832996  45.3630229  53.6116773  13.5040049
  45.8754749  54.4060024  13.6545613  46.0152941  52.9143064  13.4373650
  47.1725113  56.7282530  15.5862802  47.3491742  57.6500494  15.3983786
  47.9681947  56.4140949  16.0157182  51.3136132  43.5890794  27.1846735
  52.0545845  44.1897947  27.1051198  51.5454055  42.8468432  26.6264778
  46.4577470  48.7747161  25.4624965  46.3430985  47.8732419  25.7632064
  45.6021988  49.0210858  25.1109782  53.5369308  56.7164902  27.0612466
  53.0933162  55.9301280  26.7433370  54.1986521  56.9044052  26.3956356
  48.2956429  58.2460703  21.5873144  48.8463854  58.1177767  20.8150138
  47.4567905  58.5455592  21.2368037  55.6350546  56.9967702  25.0893867
  55.6169021  57.8176583  24.5974136  56.5570466  56.8721777  25.3144008
  52.0923600  54.5111831  25.9317375  52.6251937  53.7500119  25.7016683
  51.5637681  54.2185483  26.6741530  55.2593295  39.6171897  21.4611017
  54.9157564  40.5073539  21.3850128  55.6272257  39.4273555  20.5980602
  43.3279145  51.9405428  14.2799619  44.1654367  52.3502436  14.0633327
  43.5057413  51.0004870  14.2499813  55.2243577  49.6080508   9.9683452
  54.7090201  50.3785113  10.2071840  54.9520886  48.9345644  10.5916514
  52.8090688  44.4530209  15.0268690  51.9532285  44.0637059  14.8474329
  53.2217640  44.5322170  14.1668476  54.3389835  41.9876552  19.4260250
  53.8354631  41.9506687  18.6128056  54.6320442  42.8969295  19.4856907
  50.5832721  42.0715282  18.4326432  51.4485718  41.8758091  18.0732321
  50.6510230  41.8425634  19.3595789  60.1977852  52.3612863  11.9036626
  59.4207294  52.0224022  11.4591788  60.8769333  52.3665486  11.2291591
  55.0129881  47.4807600  11.7943233  54.7080016  47.7953750  12.6453376
  55.9660323  47.5589020  11.8370566  53.4576312  53.6397824  13.4436187
  52.9297674  52.9050583  13.1309425  52.9563815  54.4172500  13.1976156
  58.4369158  51.8346844  18.5603234  57.7792833  52.5246106  18.6483362
  59.2409558  52.2243276  18.9037220  48.1895040  44.3017490  15.8042799
  48.7638792  44.0792671  15.0715992  48.7766022  44.3706184  16.5571400
  57.2474617  50.1891217  16.6107175  57.7606499  50.8221209  17.1128885
  57.8975841  49.5892412  16.2450535  48.5164627  46.3321951   9.8238684
  47.6801939  46.6696638  10.1447959  48.3769397  46.1970931   8.8865821
  50.4917708  41.1758739  14.5317868  49.8382120  40.8607756  13.9074483
  50.4498182  40.5534479  15.2577691  51.6028913  51.4578034   6.4471160
  50.6955974  51.2267287   6.6462309  52.0999945  50.6615653   6.6345142
  54.5096991  60.1675541   9.3667846  53.8358690  60.4707238   9.9752804
  54.8962813  60.9704621   9.0173304  53.7255448  47.6640672  18.8565516
  52.8078009  47.8855619  18.6987204  54.1415592  47.7386983  17.9977223
  54.5090496  49.0632088  13.9868196  55.2562315  49.5753485  13.6775318
  54.7782085  48.7416141  14.8472590  52.7817146  51.5590629  10.9695150
  51.8728365  51.2749662  11.0667620  52.8112230  51.9789707  10.1098457
  58.0136413  55.1697218  14.7386318  57.5598741  54.3288128  14.7951508
  57.3830380  55.8058617  15.0761098  56.9569333  46.0989204  15.9686985
  56.2192090  45.5866591  16.2997228  57.2096107  45.6589586  15.1570262
  56.4569353  57.0073715  15.6736136  56.7492327  57.5678772  14.9548502
  56.9667973  57.3002276  16.4289295  57.0580960  38.8765456  16.5628755
  57.3639837  38.0162820  16.2754670  57.7833565  39.4683077  16.3627749
  43.3505316  49.2796143  14.9510353  43.1529716  48.6865504  14.2261419
  42.7951980  48.9748353  15.6686291  51.3302040  49.1719249  17.0704946
  51.3850650  48.2193086  16.9947422  50.5193242  49.3278689  17.5546244
  52.4793234  53.0999372   8.3083229  52.0412664  52.3835231   7.8488866
  53.2203675  53.3275487   7.7468320  49.2694400  47.7896309  14.8295325
  48.4562266  48.0890480  15.2360517  49.7653394  47.3951998  15.5469807
  51.4202978  57.7854066  16.7629589  51.3779157  58.0114912  15.8338121
  52.3365677  57.5517441  16.9115390  54.8668612  48.2538134  23.6610218
  55.2217999  48.4809607  24.5204684  55.5140743  48.5856510  23.0387474
  60.5966349  51.3756570  14.3659548  60.4584247  51.5658165  13.4380737
  60.2402567  52.1375952  14.8227599  48.7608475  45.3614665  20.4456560
  49.4007854  45.2203424  19.7479523  47.9286005  45.0749178  20.0695162
  60.6235728  53.4433097  19.3770819  61.0572235  53.3508386  20.2253873
  61.3367309  53.4190597  18.7390835  49.5368779  54.6617095  16.5591552
  50.3309377  54.1667415  16.3574127  48.8260471  54.1334958  16.1959258
  54.3563623  57.0435191  20.9103920  54.4100645  57.6126127  21.6781636
  53.4878405  57.2137076  20.5457957  45.8451542  48.8060177  12.6351305
  44.9149130  48.7444632  12.8521267  45.9409014  48.2836130  11.8387946
  45.7637091  45.3314990  15.2229546  46.0243908  46.2460323  15.1138707
  46.5854264  44.8639432  15.3726159  47.2362017  46.7452747  22.3928371
  47.9085070  46.5370109  21.7441020  46.4091803  46.5474833  21.9533603
  61.4851278  53.4856797  21.9103704  61.6787168  54.3902608  22.1562979
  61.3851896  53.0264216  22.7442289  53.1387589  43.3714688  24.4094032
  52.4915504  44.0704637  24.3158508  53.9088604  43.8050832  24.7770280
  56.5466386  53.6363540  27.4844585  56.3951893  53.4074092  26.5674669
  56.5371066  54.5934141  27.4975930  53.3151723  51.2095453  22.4690851
  54.2443783  51.3606612  22.2959819  52.8942753  51.2979473  21.6139498
  52.1140055  55.2346117  20.2389389  51.9751140  54.8664901  21.1115327
  51.3254651  55.7493757  20.0673347  52.7088207  60.3355214  11.5814926
  52.8839962  59.8643257  12.3960548  52.0220995  60.9620980  11.8096186
  53.6645270  54.6127720  17.6278227  53.3295102  54.5728490  18.5235877
  53.1649215  53.9472436  17.1548637  47.6389514  50.0195350  23.1530808
  47.5009312  49.2875589  23.7542347  48.5494437  49.9304250  22.8714996
  56.6004461  51.9583754   7.9015287  55.9833632  51.2330582   7.8048339
  56.1320950  52.7193114   7.5582361  50.2671814  49.7315309  22.6414488
  50.9771433  49.0908501  22.6001106  50.2241123  49.9828204  23.5640668
  58.2558593  56.6682662  25.5621067  58.1971139  55.9841883  24.8951650
  58.6578112  57.4101652  25.1101693  48.9800748  46.7180527  24.4610127
  48.4438105  46.2671265  25.1131724  48.3917457  46.8526436  23.7180592
  47.2749292  63.4844576  18.3554786  47.5145890  64.1163100  19.0333804
  46.4318488  63.1332616  18.6420145  48.3903007  46.1769178   7.0236591
  47.5132474  46.0557979   6.6598837  48.8660760  45.3855257   6.7715479
  58.2576000  54.6322246  23.7935047  57.3702779  54.2948168  23.9161445
  58.8274551  53.9005278  24.0303812  39.9105148  50.9646338  17.1178098
  40.5976187  50.6508068  16.5299113  39.7553276  51.8687703  16.8445349
  44.7139870  45.8536535  21.5463122  44.6298058  45.2462204  20.8113532
  43.8922576  46.3445553  21.5472618  51.7877154  59.2923699  20.7596290
  51.7147325  60.0978670  21.2715594  51.3454547  59.4915665  19.9344311
  51.5766933  58.5295469  14.2699111  50.7934455  59.0717149  14.3637336
  52.2759679  59.0469448  14.6693353  54.8863584  44.3390098  16.9133317
  55.3832283  43.5860061  16.5934387  54.1150565  44.3754415  16.3476526
  62.7393341  50.0430464  18.5551608  62.7283217  50.9255179  18.1845541
  61.8710720  49.6902015  18.3606145  54.2475837  59.1910533  22.9154448
  54.9603810  59.8257998  22.8430350  53.7565866  59.2874399  22.0994450
  55.9693364  53.0961785  14.4871740  55.0349643  53.2163248  14.3176444
  56.1470033  52.1934252  14.2231750  51.4698552  46.4807481  16.6405001
  51.0996340  45.9278522  17.3285907  51.9657645  45.8765615  16.0880001
  59.3565916  48.9379105  15.0221774  59.8226368  49.7707096  14.9482077
  59.8073416  48.4724086  15.7267033  49.2987751  56.9404976  23.7360019
  49.9997210  57.5741459  23.8889413  48.8282866  57.2819708  22.9755659
  57.4242147  55.2822926  12.0207926  57.7001991  55.1679521  12.9301800
  56.5546645  54.8840411  11.9820099  57.3282578  41.3059692  19.0612676
  56.4145658  41.5363919  19.2294883  57.7575680  41.3898136  19.9126708
  57.0989037  49.4949584  21.5612570  56.4460487  49.7425491  20.9065022
  57.4769417  48.6813722  21.2275047  54.0596211  59.5309277  15.6640740
  54.2418605  58.7130933  16.1268492  54.8829197  59.7476969  15.2265630
  54.3938376  58.4577462  12.9255788  54.9226143  57.9469917  12.3125951
  54.6566596  58.1419992  13.7901321  53.1476610  50.2369395  28.0478607
  52.4717247  50.1363524  28.7180982  53.9704244  50.0808609  28.5114604
  44.8955469  56.4741331  20.6691122  45.4808906  55.7285019  20.8019026
  44.6980307  56.7845288  21.5527786  47.7494124  59.5092579  15.6853564
  47.0804499  59.9938706  15.2017604  47.6106994  59.7561799  16.5996943
  39.4873124  49.0446932  19.3895565  39.5257223  48.5110522  20.1832683
  38.9813416  48.5182137  18.7706542  51.8899393  61.5436322  22.2836223
  52.4417701  61.7067944  23.0485308  52.2305586  62.1340760  21.6116248
  46.8663886  43.8911472  22.8858107  46.9305212  44.7526303  22.4735505
  46.8031006  43.2785474  22.1530466  46.3416158  45.9634605  26.5331142
  46.9688197  45.5811682  27.1468666  45.4844077  45.7448806  26.8986834
  56.7410267  56.3697580  28.1384877  57.2850171  56.9827538  27.6439832
  56.1597112  56.9277158  28.6551890  43.1181701  47.7711034  12.4649496
  43.4135142  46.8621712  12.4116550  42.2169737  47.7498773  12.1430499
  55.0267780  59.4918298  19.2699905  54.9018919  58.6908038  18.7610850
  55.6846871  59.9864491  18.7813875  46.6475948  45.8467030  18.4477045
  45.9262534  46.4602998  18.3084518  47.4369204  46.3824795  18.3693691
  57.0902688  57.2927318  20.8979455  56.1433024  57.1732669  20.8257782
  57.4385461  56.4049816  20.9805716  49.4502262  43.1821457  24.7217697
  49.9736664  43.4283753  25.4844006  49.2314595  44.0141492  24.3020834
  44.8469543  45.4525131  12.5888822  44.5182249  44.5722510  12.4063928
  45.2008913  45.3972800  13.4765211  54.0949122  57.0880034  17.0983807
  53.9474084  56.1596741  17.2791377  54.9202615  57.1100125  16.6140882
  47.9611366  45.7398101  12.9564299  48.3007438  46.2684022  12.2342908
  48.4083486  46.0778507  13.7322866  57.6983244  57.9108593  18.1848680
  58.6229791  57.7051454  18.0473131  57.5298547  57.6624994  19.0938021
  50.6554807  44.1235152  22.4067367  50.3151627  43.3242965  22.8088047
  49.9493813  44.4236863  21.8344201  51.3071279  41.2084464  20.8594690
  52.1297348  40.7344942  20.7373581  51.5509342  41.9874948  21.3593377
  49.9479513  44.2372723  11.1557592  50.6687876  44.6153976  10.6521309
  49.3244817  44.9561600  11.2592570  54.0910636  44.9417872  12.0915924
  54.3074250  45.8242510  11.7904753  53.6104703  44.5504085  11.3621566
  48.8309857  47.9003585  18.6686669  48.6854438  48.2143888  19.5610951
  48.3535061  48.5188485  18.1157568  50.6906240  44.8906133  18.7167559
  50.6767809  43.9947226  18.3799857  51.4078668  44.8976797  19.3505845
  52.5432371  45.3243473  20.7620686  52.2850149  46.2460544  20.7605016
  52.0117411  44.9273908  21.4521150  57.4878560  58.4294260  13.5410771
  57.6615437  57.8640683  12.7884624  57.9807451  59.2295155  13.3590261
  43.3055520  50.4408929  21.6074330  42.7608988  51.2168737  21.7394605
  44.1834869  50.7879734  21.4493452  50.0943136  43.7720513  13.9855129
  50.2159047  42.8437159  14.1846016  49.8045179  43.7859199  13.0733444
  52.9634327  41.4575424  17.1221849  52.9856023  41.5214757  16.1673828
  53.3802386  40.6179932  17.3162355  63.3417951  51.1930683  15.1601071
  63.7849097  50.4438008  14.7620194  62.4644461  51.1840820  14.7774803
  58.4753732  57.7461025  10.6407670  59.1704637  58.3667717  10.8594984
  58.8176882  56.8956376  10.9160048  44.0921541  49.5678826  24.5004487
  43.3503277  49.7161461  25.0869117  43.7714286  49.8287091  23.6371236
  60.3745155  55.1960730  12.1695000  60.8996479  55.5348003  11.4444320
  60.2867508  54.2607745  11.9858135  52.0365204  59.1094804  24.2984877
  52.3452330  58.8643951  25.1707577  52.8340686  59.3141442  23.8103747
  52.0585816  61.2632713  16.5290254  51.6190806  60.7709092  17.2223110
  52.8093933  60.7205681  16.2882329  44.5378155  57.4544254  16.5314882
  45.3636175  57.1548026  16.1513525  44.1872207  56.6851877  16.9804670
  49.5059688  56.8070723  18.6012555  48.8839698  56.1441428  18.3014783
  50.1764555  56.8331854  17.9186203  42.7386760  55.3730581  17.4903815
  41.9018668  54.9452755  17.3087817  42.7110406  55.5663024  18.4274606
  49.5784216  45.2852511  28.1945061  49.6272371  46.1614633  27.8122831
  50.1206730  44.7429904  27.6216705  60.1836936  52.6786100  24.7878927
  60.2334941  52.5136108  25.7294450  60.0750860  51.8113359  24.3976808
  49.0673195  55.3574646  12.0771016  49.2161316  56.0410110  11.4237689
  49.8739639  55.3379736  12.5920472  57.4740699  48.6617028  26.1038234
  58.3750562  48.5223493  25.8122231  57.5488673  48.8271483  27.0436411
  51.8083504  46.0383883  24.9491420  50.9386814  46.3317449  24.6774008
  52.0442985  46.6224328  25.6698684  61.6855133  55.0983042  25.0320948
  61.3939942  55.4613022  25.8684409  61.0727265  54.3850050  24.8534281
  62.8850816  52.6635921  17.5523519  63.7197707  53.1025726  17.7161079
  63.0209944  52.1874575  16.7331764  59.9342322  50.2215656  23.5001006
  60.4096443  50.4143303  22.6919858  59.0107887  50.2774842  23.2544390
  46.8225828  51.3839824  13.0832085  46.5771870  50.4802153  13.2812295
  46.9921743  51.3856974  12.1411563  54.5122538  42.2563500  22.4656840
  55.0304482  42.9924527  22.1403329  54.1577671  42.5627493  23.3003599
  46.0921476  47.1168181  10.5818246  45.3990721  47.1912536   9.9258282
  45.8473228  46.3528525  11.1039763  54.7635132  38.6763782  17.9857737
  55.0436886  38.0086971  18.6118163  55.5485739  38.8692878  17.4732401
  52.5668601  57.8522776   9.5482763  51.9942568  58.4712963   9.0953235
  53.1401394  58.4022138  10.0822685  58.6343991  47.0981416  21.7329312
  59.5861413  47.1979514  21.7541536  58.4647441  46.3059685  22.2427396
  56.6558370  44.1837000  21.9188713  56.0608302  44.4642012  21.2235202
  56.3708067  44.6730901  22.6905454  55.7865860  58.1359926  10.6791346
  56.7196534  58.0705488  10.8824221  55.6989073  58.9716193  10.2205878
  58.4153877  57.4525797   7.6395293  58.3367509  57.1185660   8.5331051
  59.2363544  57.9447565   7.6386765  61.1132068  50.3187536  20.8471612
  61.0808388  49.3803537  21.0331296  61.7232692  50.3971573  20.1137437
  52.9515399  49.1883589   6.8898816  53.8974504  49.0589797   6.9587234
  52.5729644  48.4498251   7.3668244  61.2626557  47.1098580  20.8929895
  60.7465605  46.3257036  20.7059824  62.1466505  46.7817296  21.0576414
  58.9237284  40.8539595  16.8525708  58.7262105  40.5454683  17.7369040
  59.5336989  41.5801234  16.9823637  66.9308618  51.3803543  19.9877648
  67.6612007  51.1188831  20.5485352  66.3215564  50.6432265  20.0279716
  65.0123915  49.5211406  20.5852100  64.2857079  49.3867370  19.9768591
  64.5971202  49.8288234  21.3908818  51.1358316  47.1133565   6.8253701
  50.2289772  46.8166678   6.9016415  51.4134297  46.8163384   5.9587987
  42.0536257  48.4339929  17.2752747  41.7339041  47.5805237  16.9827121
  41.5069685  48.6488507  18.0310715  45.8316164  51.1502370  20.9922254
  46.0502174  52.0819478  21.0110288  46.2441938  50.7910344  21.7777058
  52.7520382  41.6570455  12.9797942  51.9421110  41.3117540  13.3553188
  53.4404799  41.3477999  13.5685554  54.6810930  40.7348502  14.6022239
  55.2341969  41.1543955  15.2612262  54.9181017  39.8084250  14.6445195
  50.7044030  46.7235576  30.3825003  50.6040756  47.6729933  30.3137094
  50.4865572  46.3953815  29.5101073  49.9057101  43.9720501   6.9665680
  50.7676265  44.2975399   7.2261498  50.0907445  43.1851997   6.4538746
  41.9224517  52.0542840  19.2445869  41.2287988  51.6396793  18.7315823
  42.6697508  52.0963377  18.6479288  58.0589737  42.8449027  14.1100903
  57.4788406  43.5033831  13.7278956  57.7925670  42.0226372  13.6988321
  56.5093304  42.2454085  16.3122223  57.0093082  42.3570619  15.5036542
  57.1528912  41.9415138  16.9523032  50.5675300  50.1532714  29.1990064
  50.0842381  50.9533075  29.4053953  50.6536239  50.1640659  28.2457508
  43.8361259  51.9861094  17.1211884  43.8131947  52.0848781  16.1693767
  44.1461896  52.8326245  17.4429050  46.4948637  54.0437249  21.2358498
  47.4491891  54.0121191  21.1688430  46.2961161  53.5827873  22.0508724
  47.0848019  52.6138365  23.8029296  47.9040908  53.1082444  23.8264133
  47.3584827  51.6970333  23.7746863  56.8414615  45.0049118  13.1657251
  55.9540470  45.2898768  12.9477446  57.2568605  44.8442881  12.3184528
  60.1929152  45.0295638  16.8811591  60.9689542  45.5192091  17.1536207
  59.4677286  45.4553693  17.3383460  62.6301710  45.7423258  17.9385531
  63.2246201  45.5018994  17.2278840  62.7028294  45.0230388  18.5659068
  44.8498866  59.5856869  18.2528696  44.7153334  58.8257270  17.6866694
  44.4330928  60.3097769  17.7857485  55.9857829  54.7693792   7.2605271
  56.6893679  54.9743795   7.8762927  55.2620478  55.3370554   7.5254355
  56.8155639  50.5203653  13.3807542  56.7590841  50.9772205  12.5415174
  57.3683982  49.7594338  13.2030384  60.6260445  46.3093385  14.2057661
  60.3697379  45.9090021  15.0365869  60.0013313  47.0237179  14.0807800
  64.9372783  49.0489459  16.7128952  64.3772341  49.1182648  17.4860515
  64.3316286  48.8730443  15.9928449  48.0067992  60.4826186  18.4647139
  47.8900376  61.4271618  18.3625829  47.1860438  60.1799747  18.8532938
  57.8944526  55.2076321   9.3103731  58.7290130  54.7757520   9.1281206
  57.7328869  55.0358335  10.2380626  57.5490418  51.7108435  10.6760071
  57.4939222  51.5452706   9.7348515  56.9236474  52.4184468  10.8322260
  42.3382933  46.9476499  24.5021493  42.9841797  46.4375453  24.9908718
  42.1300085  47.6845181  25.0764918  54.8636326  54.0157347  30.0013634
  55.7327485  54.1897999  29.6400268  54.3843077  54.8351763  29.8789363
  50.8586544  41.2116544  10.2545389  50.8465214  42.1558384  10.4113660
  51.7509966  41.0286689   9.9604850  49.0322506  61.1354448  21.6803067
  49.9349753  61.1678058  21.9969562  48.8059876  60.2054899  21.6949403
  50.7876108  59.8885434  18.3413146  49.8371739  59.8887296  18.2277518
  51.0908594  59.1418169  17.8249180  54.6738663  37.8059320  14.5091326
  53.9071059  37.2517807  14.6548008  55.0849368  37.8781189  15.3705478
  46.6780424  44.0944116  28.5996507  47.5411886  43.7380921  28.8099832
  46.1045835  43.7558011  29.2871911  66.5228801  65.7245973  19.4058908
  67.1607211  65.6052720  18.7022248  66.4049644  66.6726816  19.4646860
  63.3318508  65.6773401  19.3420433  62.9937019  65.5614465  18.4540968
  64.2008276  65.2764566  19.3221439  59.1905323  67.5308877  15.3317324
  58.6270189  67.4398814  14.5633612  59.0757718  66.7108781  15.8119816
  56.7369755  69.0260069  18.1701544  57.5291047  68.6850893  17.7547844
  56.9766405  69.1355044  19.0903698  64.7704882  71.1979845  10.6431789
  64.1192862  71.7833925  10.2565803  65.5649245  71.7286040  10.7026826
  58.6960509  68.2868982  11.0418923  59.4691385  67.7397969  10.9031799
  59.0485908  69.1513231  11.2533384  60.5345552  69.6145364  24.2485822
  60.2435418  70.5190995  24.1332489  61.1702536  69.6561892  24.9629892
  61.4601759  66.9922213  20.8387182  62.0565331  66.7678235  20.1244145
  61.5176730  66.2506958  21.4412630  61.0326787  64.4461648   8.6737373
  61.2852308  63.9243169   7.9120836  60.0951346  64.2827793   8.7764057
  66.0770070  63.4497426  16.4812116  66.8633159  63.0316850  16.1302533
  66.3408774  64.3543519  16.6493765  66.2480147  68.8870277  11.1800773
  65.6125980  68.9604903  11.8921678  65.9177554  69.4763875  10.5019852
  71.4778497  63.3872660  17.3845095  72.2103669  62.8171876  17.6182924
  70.7217853  62.9994260  17.8251600  60.7523076  66.3489754  10.8761748
  60.6359334  65.6734657  11.5442832  60.8625336  65.8622128  10.0593901
  63.0954617  65.8099901  14.5808437  62.7312824  65.2830522  15.2921359
  63.9521733  65.4198370  14.4074923  69.0003917  57.0994234  21.8439703
  68.6687242  57.9689645  21.6200918  68.4049531  56.7830518  22.5233734
  62.7360104  60.8389801   9.5769786  62.9034506  61.7070037   9.9440257
  62.5457273  61.0017082   8.6531075  65.4935437  69.3006780  21.2435616
  65.1936160  70.2031818  21.1351423  65.1486496  69.0338963  22.0956769
  58.9447918  65.7520576  17.2772321  58.0198415  65.6196791  17.4850012
  59.1932332  66.5314796  17.7742263  68.8932581  61.8189320  18.9233053
  67.9849458  61.7504728  18.6291814  68.8420176  62.2961265  19.7514879
  62.7149325  63.2947458  10.5616453  62.5948950  63.7404509  11.4001933
  62.0201913  63.6432776  10.0029991  56.3056729  65.3953850  18.1116110
  56.4349111  65.6488329  19.0255521  55.6254181  65.9881558  17.7920765
  60.4756217  76.0651100  14.2106584  60.3980246  77.0158925  14.2895064
  59.8717860  75.7196972  14.8681510  70.7594227  60.0205758  20.7010927
  70.1168607  60.3138291  20.0550722  70.2549156  59.9058679  21.5064124
  68.4134391  63.7668931  11.3896787  69.3252247  63.9996318  11.2144484
  67.9044038  64.3505976  10.8271865  63.0506228  63.1266166  22.3991636
  63.8967424  63.5505580  22.5426285  62.9904866  62.4699790  23.0930199
  67.0203973  68.7494750  18.7810368  66.3912836  68.9140464  18.0786436
  66.6329635  69.1636359  19.5521332  70.8993205  69.6849188  16.1354732
  70.2144243  70.0648089  15.5851765  70.9837054  70.2944514  16.8686680
  66.2005674  60.7870534  24.0572810  65.9566606  61.5412595  23.5207085
  66.4765604  61.1655882  24.8920057  68.1544137  67.3309147  22.7350075
  68.3661032  67.9740907  22.0584456  68.1073885  66.4971463  22.2672005
  65.7570366  59.9426967  19.6386647  64.8954845  60.2408221  19.9303385
  65.7832800  60.1597366  18.7067680  62.5731935  68.4869158  16.0460453
  63.0370280  68.7656861  15.2565076  62.3088733  67.5852603  15.8633544
  59.4656016  68.0340640  18.9840216  60.0357373  68.4627908  18.3457701
  60.0564128  67.7523224  19.6824402  61.5100821  64.6092310  12.8550018
  62.2124864  65.0613354  13.3223945  61.1781449  63.9676129  13.4829911
  55.2526155  62.8675863  18.1567152  54.4625209  63.1233392  17.6807262
  55.7437402  63.6824201  18.2619192  69.2689965  70.2081102  20.9072433
  70.0907408  69.8061289  20.6255114  69.2652367  70.1049336  21.8588548
  57.2040900  63.2320442  15.1150629  56.4072064  63.3439136  15.6334124
  56.9766493  63.5707094  14.2491519  63.0346568  69.7565145  23.0633143
  63.0991000  70.2185553  23.8991315  62.3257492  69.1262510  23.1915453
  53.5363858  63.1206353  20.5882143  53.7871896  64.0053363  20.8539719
  54.0723406  62.9410955  19.8157234  77.3595958  66.5519851  17.2557404
  76.6059666  65.9827249  17.1001409  77.4943499  66.5182515  18.2028039
  62.7494586  71.4233253  12.9312124  62.6140260  72.2684789  13.3596971
  63.2904398  71.6252531  12.1678057  56.2023983  68.9408691  13.5040049
  56.7148504  69.7351941  13.6545613  56.8546696  68.2434981  13.4373650
  58.0118868  72.0574447  15.5862802  58.1885496  72.9792412  15.3983786
  58.8075701  71.7432866  16.0157182  57.2971224  64.1039079  25.4624965
  57.1824739  63.2024336  25.7632064  56.4415742  64.3502776  25.1109782
  64.3763062  72.0456819  27.0612466  63.9326916  71.2593198  26.7433370
  65.0380276  72.2335970  26.3956356  59.1350183  73.5752621  21.5873144
  59.6857608  73.4469684  20.8150138  58.2961659  73.8747510  21.2368037
  66.4744300  72.3259619  25.0893867  66.4562775  73.1468500  24.5974136
  67.3964220  72.2013695  25.3144008  62.9317354  69.8403749  25.9317375
  63.4645691  69.0792037  25.7016683  62.4031435  69.5477401  26.6741530
  66.0987049  54.9463815  21.4611017  65.7551319  55.8365457  21.3850128
  66.4666012  54.7565472  20.5980602  54.1672900  67.2697345  14.2799619
  55.0048122  67.6794354  14.0633327  54.3451167  66.3296787  14.2499813
  66.0637332  64.9372426   9.9683452  65.5483955  65.7077031  10.2071840
  65.7914640  64.2637562  10.5916514  63.6484443  59.7822127  15.0268690
  62.7926039  59.3928977  14.8474329  64.0611395  59.8614088  14.1668476
  65.1783590  57.3168470  19.4260250  64.6748385  57.2798605  18.6128056
  65.4714196  58.2261213  19.4856907  61.4226475  57.4007200  18.4326432
  62.2879472  57.2050008  18.0732321  61.4903984  57.1717551  19.3595789
  71.0371606  67.6904781  11.9036626  70.2601049  67.3515940  11.4591788
  71.7163087  67.6957404  11.2291591  65.8523635  62.8099518  11.7943233
  65.5473771  63.1245667  12.6453376  66.8054077  62.8880938  11.8370566
  64.2970067  68.9689741  13.4436187  63.7691428  68.2342501  13.1309425
  63.7957570  69.7464418  13.1976156  69.2762913  67.1638762  18.5603234
  68.6186587  67.8538023  18.6483362  70.0803312  67.5535194  18.9037220
  59.0288795  59.6309408  15.8042799  59.6032546  59.4084589  15.0715992
  59.6159777  59.6998102  16.5571400  68.0868372  65.5183135  16.6107175
  68.6000253  66.1513126  17.1128885  68.7369596  64.9184330  16.2450535
  59.3558382  61.6613869   9.8238684  58.5195694  61.9988555  10.1447959
  59.2163151  61.5262848   8.8865821  61.3311462  56.5050657  14.5317868
  60.6775875  56.1899674  13.9074483  61.2891936  55.8826397  15.2577691
  62.4422667  66.7869952   6.4471160  61.5349729  66.5559205   6.6462309
  62.9393699  65.9907571   6.6345142  65.3490746  75.4967459   9.3667846
  64.6752445  75.7999156   9.9752804  65.7356568  76.2996539   9.0173304
  64.5649203  62.9932590  18.8565516  63.6471764  63.2147537  18.6987204
  64.9809346  63.0678901  17.9977223  65.3484250  64.3924006  13.9868196
  66.0956069  64.9045403  13.6775318  65.6175840  64.0708058  14.8472590
  63.6210901  66.8882546  10.9695150  62.7122120  66.6041579  11.0667620
  63.6505984  67.3081625  10.1098457  68.8530168  70.4989136  14.7386318
  68.3992495  69.6580046  14.7951508  68.2224135  71.1350534  15.0761098
  67.7963088  61.4281122  15.9686985  67.0585844  60.9158508  16.2997228
  68.0489861  60.9881504  15.1570262  67.2963107  72.3365633  15.6736136
  67.5886082  72.8970690  14.9548502  67.8061728  72.6294194  16.4289295
  67.8974715  54.2057374  16.5628755  68.2033592  53.3454737  16.2754670
  68.6227320  54.7974994  16.3627749  54.1899071  64.6088061  14.9510353
  53.9923471  64.0157421  14.2261419  53.6345735  64.3040271  15.6686291
  62.1695795  64.5011167  17.0704946  62.2244404  63.5485003  16.9947422
  61.3586997  64.6570606  17.5546244  63.3186988  68.4291290   8.3083229
  62.8806418  67.7127149   7.8488866  64.0597429  68.6567405   7.7468320
  60.1088155  63.1188227  14.8295325  59.2956020  63.4182397  15.2360517
  60.6047149  62.7243916  15.5469807  62.2596732  73.1145984  16.7629589
  62.2172911  73.3406830  15.8338121  63.1759431  72.8809358  16.9115390
  65.7062366  63.5830051  23.6610218  66.0611754  63.8101524  24.5204684
  66.3534497  63.9148428  23.0387474  71.4360103  66.7048487  14.3659548
  71.2978002  66.8950083  13.4380737  71.0796322  67.4667870  14.8227599
  59.6002229  60.6906582  20.4456560  60.2401609  60.5495341  19.7479523
  58.7679760  60.4041096  20.0695162  71.4629483  68.7725014  19.3770819
  71.8965989  68.6800303  20.2253873  72.1761063  68.7482515  18.7390835
  60.3762533  69.9909013  16.5591552  61.1703132  69.4959333  16.3574127
  59.6654226  69.4626876  16.1959258  65.1957378  72.3727108  20.9103920
  65.2494400  72.9418045  21.6781636  64.3272159  72.5428993  20.5457957
  56.6845297  64.1352095  12.6351305  55.7542885  64.0736550  12.8521267
  56.7802769  63.6128047  11.8387946  56.6030846  60.6606907  15.2229546
  56.8637663  61.5752241  15.1138707  57.4248018  60.1931350  15.3726159
  58.0755771  62.0744665  22.3928371  58.7478824  61.8662027  21.7441020
  57.2485558  61.8766751  21.9533603  72.3245032  68.8148715  21.9103704
  72.5180922  69.7194525  22.1562979  72.2245650  68.3556134  22.7442289
  63.9781343  58.7006605  24.4094032  63.3309258  59.3996555  24.3158508
  64.7482358  59.1342749  24.7770280  64.1545477  66.5387370  22.4690851
  65.0837537  66.6898530  22.2959819  63.7336507  66.6271391  21.6139498
  62.9533809  70.5638035  20.2389389  62.8144895  70.1956819  21.1115327
  62.1648405  71.0785674  20.0673347  63.5481961  75.6647131  11.5814926
  63.7233717  75.1935174  12.3960548  62.8614749  76.2912897  11.8096186
  64.5039024  69.9419637  17.6278227  64.1688857  69.9020407  18.5235877
  64.0042970  69.2764353  17.1548637  58.4783268  65.3487267  23.1530808
  58.3403066  64.6167506  23.7542347  59.3888192  65.2596168  22.8714996
  67.4398216  67.2875672   7.9015287  66.8227387  66.5622500   7.8048339
  66.9714704  68.0485032   7.5582361  61.1065569  65.0607227  22.6414488
  61.8165187  64.4200419  22.6001106  61.0634877  65.3120122  23.5640668
  69.0952348  71.9974580  25.5621067  69.0364894  71.3133800  24.8951650
  69.4971866  72.7393570  25.1101693  58.1143046  78.8136494  18.3554786
  58.3539645  79.4455018  19.0333804  57.2712243  78.4624534  18.6420145
  59.2296762  61.5061096   7.0236591  58.3526228  61.3849897   6.6598837
  59.7054515  60.7147174   6.7715479  69.0969755  69.9614164  23.7935047
  68.2096534  69.6240086  23.9161445  69.6668306  69.2297195  24.0303812
  50.7498902  66.2938256  17.1178098  51.4369942  65.9799986  16.5299113
  50.5947031  67.1979620  16.8445349  55.5533624  61.1828452  21.5463122
  55.4691813  60.5754122  20.8113532  54.7316331  61.6737471  21.5472618
  62.6270908  74.6215616  20.7596290  62.5541080  75.4270588  21.2715594
  62.1848301  74.8207582  19.9344311  62.4160688  73.8587386  14.2699111
  61.6328210  74.4009067  14.3637336  63.1153433  74.3761366  14.6693353
  65.7257338  59.6682016  16.9133317  66.2226038  58.9151978  16.5934387
  64.9544320  59.7046333  16.3476526  73.5787095  65.3722381  18.5551608
  73.5676972  66.2547097  18.1845541  72.7104475  65.0193932  18.3606145
  65.0869592  74.5202450  22.9154448  65.7997564  75.1549915  22.8430350
  64.5959620  74.6166316  22.0994450  66.8087119  68.4253703  14.4871740
  65.8743397  68.5455166  14.3176444  66.9863787  67.5226170  14.2231750
  62.3092307  61.8099399  16.6405001  61.9390094  61.2570439  17.3285907
  62.8051399  61.2057532  16.0880001  70.1959670  64.2671022  15.0221774
  70.6620122  65.0999014  14.9482077  70.6467171  63.8016004  15.7267033
  60.1381505  72.2696894  23.7360019  60.8390965  72.9033377  23.8889413
  59.6676620  72.6111625  22.9755659  68.2635901  70.6114844  12.0207926
  68.5395745  70.4971438  12.9301800  67.3940400  70.2132329  11.9820099
  68.1676333  56.6351609  19.0612676  67.2539413  56.8655836  19.2294883
  68.5969434  56.7190053  19.9126708  67.9382791  64.8241501  21.5612570
  67.2854242  65.0717409  20.9065022  68.3163171  64.0105640  21.2275047
  64.8989965  74.8601195  15.6640740  65.0812360  74.0422850  16.1268492
  65.7222951  75.0768887  15.2265630  65.2332131  73.7869380  12.9255788
  65.7619897  73.2761834  12.3125951  65.4960350  73.4711910  13.7901321
  55.7349223  71.8033249  20.6691122  56.3202660  71.0576937  20.8019026
  55.5374062  72.1137206  21.5527786  58.5887879  74.8384496  15.6853564
  57.9198254  75.3230624  15.2017604  58.4500748  75.0853717  16.5996943
  50.3266878  64.3738849  19.3895565  50.3650978  63.8402440  20.1832683
  49.8207171  63.8474055  18.7706542  62.7293147  76.8728240  22.2836223
  63.2811455  77.0359861  23.0485308  63.0699341  77.4632678  21.6116248
  57.7057640  59.2203390  22.8858107  57.7698967  60.0818221  22.4735505
  57.6424761  58.6077391  22.1530466  57.1809913  61.2926522  26.5331142
  57.8081952  60.9103600  27.1468666  56.3237832  61.0740724  26.8986834
  67.5804022  71.6989497  28.1384877  68.1243926  72.3119456  27.6439832
  66.9990866  72.2569076  28.6551890  53.9575456  63.1002951  12.4649496
  54.2528897  62.1913630  12.4116550  53.0563491  63.0790691  12.1430499
  65.8661534  74.8210215  19.2699905  65.7412674  74.0199955  18.7610850
  66.5240626  75.3156409  18.7813875  57.4869703  61.1758948  18.4477045
  56.7656288  61.7894916  18.3084518  58.2762958  61.7116713  18.3693691
  67.9296443  72.6219236  20.8979455  66.9826778  72.5024587  20.8257782
  68.2779216  71.7341734  20.9805716  60.2896016  58.5113374  24.7217697
  60.8130418  58.7575671  25.4844006  60.0708350  59.3433409  24.3020834
  55.6863297  60.7817049  12.5888822  55.3576003  59.9014428  12.4063928
  56.0402668  60.7264718  13.4765211  64.9342876  72.4171952  17.0983807
  64.7867839  71.4888659  17.2791377  65.7596370  72.4392042  16.6140882
  58.8005120  61.0690019  12.9564299  59.1401193  61.5975940  12.2342908
  59.2477241  61.4070425  13.7322866  68.5376998  73.2400510  18.1848680
  69.4623545  73.0343372  18.0473131  68.3692301  72.9916912  19.0938021
  61.4948561  59.4527070  22.4067367  61.1545382  58.6534883  22.8088047
  60.7887568  59.7528780  21.8344201  62.1465033  56.5376382  20.8594690
  62.9691102  56.0636860  20.7373581  62.3903097  57.3166866  21.3593377
  60.7873268  59.5664640  11.1557592  61.5081630  59.9445893  10.6521309
  60.1638572  60.2853517  11.2592570  64.9304390  60.2709789  12.0915924
  65.1468005  61.1534427  11.7904753  64.4498458  59.8796003  11.3621566
  59.6703612  63.2295503  18.6686669  59.5248193  63.5435806  19.5610951
  59.1928815  63.8480403  18.1157568  61.5299995  60.2198051  18.7167559
  61.5161563  59.3239144  18.3799857  62.2472423  60.2268714  19.3505845
  63.3826125  60.6535391  20.7620686  63.1243903  61.5752461  20.7605016
  62.8511166  60.2565825  21.4521150  68.3272314  73.7586178  13.5410771
  68.5009192  73.1932600  12.7884624  68.8201205  74.5587073  13.3590261
  54.1449274  65.7700847  21.6074330  53.6002742  66.5460655  21.7394605
  55.0228624  66.1171651  21.4493452  60.9336891  59.1012431  13.9855129
  61.0552802  58.1729077  14.1846016  60.6438933  59.1151117  13.0733444
  63.8028081  56.7867341  17.1221849  63.8249778  56.8506674  16.1673828
  64.2196140  55.9471850  17.3162355  74.1811705  66.5222601  15.1601071
  74.6242851  65.7729926  14.7620194  73.3038216  66.5132737  14.7774803
  69.3147487  73.0752942  10.6407670  70.0098391  73.6959635  10.8594984
  69.6570637  72.2248294  10.9160048  54.9315296  64.8970743  24.5004487
  54.1897032  65.0453379  25.0869117  54.6108040  65.1579009  23.6371236
  71.2138910  70.5252648  12.1695000  71.7390234  70.8639921  11.4444320
  71.1261262  69.5899663  11.9858135  62.8758959  74.4386721  24.2984877
  63.1846085  74.1935868  25.1707577  63.6734441  74.6433360  23.8103747
  62.8979571  76.5924631  16.5290254  62.4584561  76.1001010  17.2223110
  63.6487688  76.0497599  16.2882329  55.3771910  72.7836172  16.5314882
  56.2029929  72.4839944  16.1513525  55.0265962  72.0143794  16.9804670
  60.3453443  72.1362640  18.6012555  59.7233452  71.4733345  18.3014783
  61.0158310  72.1623772  17.9186203  53.5780515  70.7022498  17.4903815
  52.7412423  70.2744673  17.3087817  53.5504160  70.8954942  18.4274606
  70.9032816  71.1585551  27.4746198  70.1128360  71.1409690  26.9350698
  70.6666170  71.6973845  28.2295235  71.0230691  68.0078018  24.7878927
  71.0728696  67.8428025  25.7294450  70.9144614  67.1405277  24.3976808
  59.9066950  70.6866564  12.0771016  60.0555070  71.3702028  11.4237689
  60.7133393  70.6671654  12.5920472  68.3134453  63.9908946  26.1038234
  69.2144316  63.8515411  25.8122231  68.3882428  64.1563401  27.0436411
  72.5248888  70.4274959  25.0320948  72.2333696  70.7904940  25.8684409
  71.9121019  69.7141968  24.8534281  73.7244570  67.9927839  17.5523519
  74.5591461  68.4317643  17.7161079  73.8603699  67.5166492  16.7331764
  70.7736076  65.5507574  23.5001006  71.2490198  65.7435220  22.6919858
  69.8501641  65.6066760  23.2544390  57.6619583  66.7131741  13.0832085
  57.4165625  65.8094071  13.2812295  57.8315497  66.7148892  12.1411563
  65.3516292  57.5855418  22.4656840  65.8698236  58.3216444  22.1403329
  64.9971425  57.8919411  23.3003599  56.9315230  62.4460099  10.5818246
  56.2384475  62.5204454   9.9258282  56.6866982  61.6820442  11.1039763
  65.6028887  54.0055700  17.9857737  65.8830640  53.3378889  18.6118163
  66.3879494  54.1984796  17.4732401  63.4062355  73.1814694   9.5482763
  62.8336322  73.8004881   9.0953235  63.9795149  73.7314056  10.0822685
  69.4737745  62.4273334  21.7329312  70.4255168  62.5271432  21.7541536
  69.3041195  61.6351603  22.2427396  67.4952124  59.5128917  21.9188713
  66.9002057  59.7933930  21.2235202  67.2101821  60.0022818  22.6905454
  66.6259615  73.4651844  10.6791346  67.5590288  73.3997406  10.8824221
  66.5382828  74.3008111  10.2205878  69.2547632  72.7817714   7.6395293
  69.1761263  72.4477578   8.5331051  70.0757298  73.2739482   7.6386765
  71.9525823  65.6479454  20.8471612  71.9202143  64.7095455  21.0331296
  72.5626446  65.7263490  20.1137437  63.7909154  64.5175507   6.8898816
  64.7368258  64.3881715   6.9587234  63.4123399  63.7790169   7.3668244
  72.1020311  62.4390497  20.8929895  71.5859360  61.6548954  20.7059824
  72.9860260  62.1109214  21.0576414  69.7631038  56.1831513  16.8525708
  69.5655859  55.8746601  17.7369040  70.3730744  56.9093152  16.9823637
  77.7702373  66.7095461  19.9877648  78.5005761  66.4480749  20.5485352
  77.1609318  65.9724183  20.0279716  75.8517670  64.8503323  20.5852100
  75.1250833  64.7159288  19.9768591  75.4364957  65.1580152  21.3908818
  61.9752071  62.4425483   6.8253701  61.0683526  62.1458596   6.9016415
  62.2528052  62.1455301   5.9587987  52.8930011  63.7631847  17.2752747
  52.5732796  62.9097155  16.9827121  52.3463439  63.9780425  18.0310715
  56.6709919  66.4794288  20.9922254  56.8895929  67.4111395  21.0110288
  57.0835693  66.1202262  21.7777058  63.5914137  56.9862373  12.9797942
  62.7814865  56.6409458  13.3553188  64.2798553  56.6769917  13.5685554
  65.5204685  56.0640420  14.6022239  66.0735723  56.4835873  15.2612262
  65.7574771  55.1376168  14.6445195  60.7450855  59.3012418   6.9665680
  61.6070019  59.6267317   7.2261498  60.9301200  58.5143914   6.4538746
  52.7618271  67.3834758  19.2445869  52.0681743  66.9688711  18.7315823
  53.5091262  67.4255295  18.6479288  68.8983492  58.1740945  14.1100903
  68.3182161  58.8325749  13.7278956  68.6319425  57.3518289  13.6988321
  67.3487058  57.5746003  16.3122223  67.8486837  57.6862537  15.5036542
  67.9922666  57.2707055  16.9523032  54.6755014  67.3153012  17.1211884
  54.6525702  67.4140699  16.1693767  54.9855650  68.1618163  17.4429050
  57.3342392  69.3729167  21.2358498  58.2885645  69.3413109  21.1688430
  57.1354915  68.9119791  22.0508724  57.9241774  67.9430283  23.8029296
  58.7434663  68.4374362  23.8264133  58.1978581  67.0262251  23.7746863
  67.6808370  60.3341035  13.1657251  66.7934225  60.6190686  12.9477446
  68.0962359  60.1734799  12.3184528  71.0322906  60.3587556  16.8811591
  71.8083296  60.8484009  17.1536207  70.3071040  60.7845610  17.3383460
  73.4695465  61.0715175  17.9385531  74.0639955  60.8310911  17.2278840
  73.5422048  60.3522306  18.5659068  55.6892620  74.9148786  18.2528696
  55.5547088  74.1549187  17.6866694  55.2724683  75.6389686  17.7857485
  66.8251583  70.0985710   7.2605271  67.5287434  70.3035712   7.8762927
  66.1014232  70.6662472   7.5254355  67.6549394  65.8495571  13.3807542
  67.5984595  66.3064123  12.5415174  68.2077736  65.0886256  13.2030384
  71.4654200  61.6385303  14.2057661  71.2091134  61.2381939  15.0365869
  70.8407068  62.3529097  14.0807800  75.7766537  64.3781376  16.7128952
  75.2166095  64.4474566  17.4860515  75.1710041  64.2022361  15.9928449
  58.8461746  75.8118103  18.4647139  58.7294130  76.7563536  18.3625829
  58.0254193  75.5091665  18.8532938  68.7338281  70.5368239   9.3103731
  69.5683885  70.1049438   9.1281206  68.5722624  70.3650253  10.2380626
  68.3884173  67.0400352  10.6760071  68.3332977  66.8744624   9.7348515
  67.7630228  67.7476385  10.8322260  53.1776688  62.2768417  24.5021493
  53.8235552  61.7667371  24.9908718  52.9693839  63.0137098  25.0764918
  61.6980298  56.5408461  10.2545389  61.6858968  57.4850301  10.4113660
  62.5903720  56.3578607   9.9604850  59.8716260  76.4646365  21.6803067
  60.7743507  76.4969976  21.9969562  59.6453630  75.5346816  21.6949403
  61.6269862  75.2177352  18.3413146  60.6765493  75.2179213  18.2277518
  61.9302349  74.4710086  17.8249180  65.5132418  53.1351238  14.5091326
  64.7464814  52.5809725  14.6548008  65.9243123  53.2073107  15.3705478
  77.3622556  81.0537890  19.4058908  78.0000966  80.9344638  18.7022248
  77.2443399  82.0018734  19.4646860  74.1712262  81.0065318  19.3420433
  73.8330774  80.8906383  18.4540968  75.0402030  80.6056483  19.3221439
  70.0299078  82.8600795  15.3317324  69.4663943  82.7690732  14.5633612
  69.9151473  82.0400699  15.8119816  74.6532045  82.1600170  25.3006638
  74.6420686  81.7652968  24.4287142  74.8152685  81.4266243  25.8940410
  67.5763510  84.3551986  18.1701544  68.3684802  84.0142811  17.7547844
  67.8160160  84.4646961  19.0903698  69.5354264  83.6160900  11.0418923
  70.3085140  83.0689887  10.9031799  69.8879663  84.4805149  11.2533384
  71.3739306  84.9437282  24.2485822  71.0829172  85.8482913  24.1332489
  72.0096291  84.9853809  24.9629892  72.2995513  82.3214130  20.8387182
  72.8959085  82.0970153  20.1244145  72.3570485  81.5798876  21.4412630
  71.8720542  79.7753566   8.6737373  72.1246062  79.2535087   7.9120836
  70.9345101  79.6119711   8.7764057  76.9163824  78.7789344  16.4812116
  77.7026914  78.3608767  16.1302533  77.1802529  79.6835436  16.6493765
  77.0873902  84.2162194  11.1800773  76.4519735  84.2896821  11.8921678
  76.7571308  84.8055793  10.5019852  82.3172252  78.7164577  17.3845095
  83.0497423  78.1463794  17.6182924  81.5611607  78.3286178  17.8251600
  71.5916830  81.6781672  10.8761748  71.4753088  81.0026575  11.5442832
  71.7019090  81.1914046  10.0593901  73.9348371  81.1391819  14.5808437
  73.5706578  80.6122440  15.2921359  74.7915487  80.7490288  14.4074923
  79.8397672  72.4286151  21.8439703  79.5080997  73.2981562  21.6200918
  79.2443285  72.1122435  22.5233734  73.5753858  76.1681718   9.5769786
  73.7428261  77.0361955   9.9440257  73.3851027  76.3309000   8.6531075
  76.3329191  84.6298697  21.2435616  76.0329914  85.5323736  21.1351423
  75.9880251  84.3630881  22.0956769  69.7841673  81.0812494  17.2772321
  68.8592169  80.9488708  17.4850012  70.0326086  81.8606713  17.7742263
  79.7326335  77.1481238  18.9233053  78.8243213  77.0796646  18.6291814
  79.6813931  77.6253182  19.7514879  73.5543079  78.6239376  10.5616453
  73.4342704  79.0696427  11.4001933  72.8595667  78.9724694  10.0029991
  67.1450484  80.7245768  18.1116110  67.2742865  80.9780247  19.0255521
  66.4647935  81.3173476  17.7920765  71.3149971  91.3943018  14.2106584
  71.2374001  92.3450843  14.2895064  70.7111615  91.0488890  14.8681510
  73.8067201  78.5670883  26.8667951  73.0300535  79.1264803  26.8570815
  74.4457764  79.0527666  27.3882821  81.5987982  75.3497676  20.7010927
  80.9562362  75.6430209  20.0550722  81.0942910  75.2350596  21.5064124
  79.2528145  79.0960849  11.3896787  80.1646001  79.3288236  11.2144484
  78.7437792  79.6797893  10.8271865  72.0613573  81.3756336  26.4285918
  72.8028258  81.9141380  26.1520741  71.3550559  82.0022625  26.5857469
  77.5368913  83.5185477  25.0258079  77.9452269  83.0767887  24.2812712
  76.8146174  82.9438104  25.2792272  73.8899983  78.4558084  22.3991636
  74.7361178  78.8797497  22.5426285  73.8298621  77.7991708  23.0930199
  77.8597728  84.0786668  18.7810368  77.2306590  84.2432382  18.0786436
  77.4723390  84.4928277  19.5521332  81.7386959  85.0141105  16.1354732
  81.0537998  85.3940007  15.5851765  81.8230809  85.6236432  16.8686680
  77.0399428  76.1162452  24.0572810  76.7960360  76.8704513  23.5207085
  77.3159359  76.4947800  24.8920057  78.9937891  82.6601064  22.7350075
  79.2054786  83.3032824  22.0584456  78.9467639  81.8263381  22.2672005
  76.5964120  75.2718885  19.6386647  75.7348599  75.5700139  19.9303385
  76.6226555  75.4889284  18.7067680  73.4125689  83.8161076  16.0460453
  73.8764035  84.0948779  15.2565076  73.1482488  82.9144520  15.8633544
  70.3049770  83.3632557  18.9840216  70.8751128  83.7919826  18.3457701
  70.8957882  83.0815142  19.6824402  72.3494575  79.9384228  12.8550018
  73.0518619  80.3905272  13.3223945  72.0175204  79.2968047  13.4829911
  70.7974937  78.5295985  27.2301228  70.1673598  79.2112265  27.4636625
  70.6911025  78.4179066  26.2854366  66.0919909  78.1967781  18.1567152
  65.3018963  78.4525309  17.6807262  66.5831157  79.0116119  18.2619192
  80.1083719  85.5373020  20.9072433  80.9301163  85.1353207  20.6255114
  80.1046122  85.4341254  21.8588548  68.0434655  78.5612360  15.1150629
  67.2465818  78.6731054  15.6334124  67.8160247  78.8999012  14.2491519
  73.8740322  85.0857063  23.0633143  73.9384755  85.5477470  23.8991315
  73.1651246  84.4554428  23.1915453  64.3757612  78.4498271  20.5882143
  64.6265651  79.3345281  20.8539719  64.9117161  78.2702873  19.8157234
  88.1989712  81.8811768  17.2557404  87.4453420  81.3119166  17.1001409
  88.3337253  81.8474433  18.2028039  73.5888340  86.7525171  12.9312124
  73.4534015  87.5976706  13.3596971  74.1298153  86.9544448  12.1678057
  70.0755680  72.8316750  29.5926479  69.6822625  72.2782949  30.2674123
  70.8921820  73.1427329  29.9832996  67.0417737  84.2700609  13.5040049
  67.5542258  85.0643859  13.6545613  67.6940450  83.5726899  13.4373650
  68.8512622  87.3866365  15.5862802  69.0279251  88.3084330  15.3983786
  69.6469456  87.0724784  16.0157182  72.9923641  74.2474630  27.1846735
  73.7333354  74.8481783  27.1051198  73.2241564  73.5052267  26.6264778
  68.1364979  79.4330997  25.4624965  68.0218494  78.5316254  25.7632064
  67.2809496  79.6794694  25.1109782  75.2156816  87.3748737  27.0612466
  74.7720671  86.5885116  26.7433370  75.8774030  87.5627888  26.3956356
  69.9743938  88.9044539  21.5873144  70.5251363  88.7761602  20.8150138
  69.1355414  89.2039428  21.2368037  77.3138055  87.6551537  25.0893867
  77.2956530  88.4760418  24.5974136  78.2357975  87.5305612  25.3144008
  73.7711109  85.1695667  25.9317375  74.3039446  84.4083955  25.7016683
  73.2425190  84.8769318  26.6741530  76.9380804  70.2755733  21.4611017
  76.5945073  71.1657374  21.3850128  77.3059766  70.0857390  20.5980602
  65.0066654  82.5989263  14.2799619  65.8441876  83.0086271  14.0633327
  65.1844922  81.6588705  14.2499813  76.9031086  80.2664344   9.9683452
  76.3877710  81.0368948  10.2071840  76.6308395  79.5929480  10.5916514
  74.4878197  75.1114044  15.0268690  73.6319794  74.7220895  14.8474329
  74.9005149  75.1906005  14.1668476  76.0177344  72.6460388  19.4260250
  75.5142140  72.6090523  18.6128056  76.3107951  73.5553130  19.4856907
  72.2620230  72.7299117  18.4326432  73.1273227  72.5341926  18.0732321
  72.3297739  72.5009469  19.3595789  76.6917390  78.1391436  11.7943233
  76.3867525  78.4537585  12.6453376  77.6447832  78.2172856  11.8370566
  75.1363821  84.2981659  13.4436187  74.6085183  83.5634419  13.1309425
  74.6351324  85.0756335  13.1976156  80.1156667  82.4930680  18.5603234
  79.4580342  83.1829941  18.6483362  80.9197067  82.8827111  18.9037220
  69.8682549  74.9601325  15.8042799  70.4426301  74.7376507  15.0715992
  70.4553531  75.0290020  16.5571400  78.9262126  80.8475052  16.6107175
  79.4394008  81.4805044  17.1128885  79.5763350  80.2476248  16.2450535
  70.1952136  76.9905786   9.8238684  69.3589448  77.3280473  10.1447959
  70.0556906  76.8554766   8.8865821  72.1705217  71.8342574  14.5317868
  71.5169629  71.5191591  13.9074483  72.1285691  71.2118315  15.2577691
  75.4042957  78.3224508  18.8565516  74.4865518  78.5439455  18.6987204
  75.8203101  78.3970818  17.9977223  76.1878005  79.7215923  13.9868196
  76.9349824  80.2337321  13.6775318  76.4569594  79.3999976  14.8472590
  74.4604655  82.2174464  10.9695150  73.5515874  81.9333497  11.0667620
  74.4899739  82.6373543  10.1098457  79.6923922  85.8281054  14.7386318
  79.2386250  84.9871964  14.7951508  79.0617889  86.4642452  15.0761098
  78.6356842  76.7573040  15.9686985  77.8979599  76.2450426  16.2997228
  78.8883616  76.3173421  15.1570262  78.1356862  87.6657550  15.6736136
  78.4279836  88.2262607  14.9548502  78.6455482  87.9586111  16.4289295
  78.7368469  69.5349292  16.5628755  79.0427346  68.6746655  16.2754670
  79.4621074  70.1266912  16.3627749  65.0292825  79.9379978  14.9510353
  64.8317225  79.3449339  14.2261419  64.4739489  79.6332188  15.6686291
  73.0089549  79.8303085  17.0704946  73.0638159  78.8776921  16.9947422
  72.1980751  79.9862524  17.5546244  70.9481909  78.4480145  14.8295325
  70.1349775  78.7474315  15.2360517  71.4440903  78.0535833  15.5469807
  73.0990487  88.4437901  16.7629589  73.0566666  88.6698748  15.8338121
  74.0153186  88.2101276  16.9115390  76.5456121  78.9121969  23.6610218
  76.9005508  79.1393442  24.5204684  77.1928252  79.2440346  23.0387474
  82.2753858  82.0340405  14.3659548  82.1371756  82.2242001  13.4380737
  81.9190076  82.7959788  14.8227599  70.4395984  76.0198500  20.4456560
  71.0795363  75.8787259  19.7479523  69.6073514  75.7333013  20.0695162
  82.3023237  84.1016932  19.3770819  82.7359744  84.0092221  20.2253873
  83.0154818  84.0774432  18.7390835  71.2156288  85.3200930  16.5591552
  72.0096886  84.8251251  16.3574127  70.5047980  84.7918794  16.1959258
  76.0351132  87.7019026  20.9103920  76.0888154  88.2709962  21.6781636
  75.1665913  87.8720911  20.5457957  67.5239051  79.4644012  12.6351305
  66.5936639  79.4028468  12.8521267  67.6196523  78.9419965  11.8387946
  67.4424600  75.9898825  15.2229546  67.7031417  76.9044158  15.1138707
  68.2641772  75.5223268  15.3726159  68.9149526  77.4036582  22.3928371
  69.5872579  77.1953944  21.7441020  68.0879312  77.2058668  21.9533603
  83.1638787  84.1440633  21.9103704  83.3574677  85.0486443  22.1562979
  83.0639405  83.6848052  22.7442289  74.8175098  74.0298523  24.4094032
  74.1703013  74.7288473  24.3158508  75.5876113  74.4634667  24.7770280
  78.2253895  84.2947375  27.4844585  78.0739402  84.0657927  26.5674669
  78.2158575  85.2517977  27.4975930  74.9939232  81.8679288  22.4690851
  75.9231292  82.0190448  22.2959819  74.5730262  81.9563309  21.6139498
  73.7927564  85.8929952  20.2389389  73.6538649  85.5248737  21.1115327
  73.0042160  86.4077592  20.0673347  75.3432779  85.2711555  17.6278227
  75.0082611  85.2312325  18.5235877  74.8436724  84.6056271  17.1548637
  69.3177023  80.6779185  23.1530808  69.1796821  79.9459424  23.7542347
  70.2281946  80.5888085  22.8714996  71.9459323  80.3899144  22.6414488
  72.6558942  79.7492337  22.6001106  71.9028632  80.6412039  23.5640668
  79.9346102  87.3266498  25.5621067  79.8758648  86.6425718  24.8951650
  80.3365620  88.0685488  25.1101693  70.6588257  77.3764362  24.4610127
  70.1225614  76.9255101  25.1131724  70.0704966  77.5110271  23.7180592
  68.9536801  94.1428412  18.3554786  69.1933399  94.7746936  19.0333804
  68.1105997  93.7916452  18.6420145  70.0690516  76.8353014   7.0236591
  69.1919983  76.7141815   6.6598837  70.5448269  76.0439092   6.7715479
  79.9363509  85.2906082  23.7935047  79.0490288  84.9532004  23.9161445
  80.5062060  84.5589113  24.0303812  61.5892656  81.6230174  17.1178098
  62.2763696  81.3091904  16.5299113  61.4340785  82.5271538  16.8445349
  66.3927379  76.5120370  21.5463122  66.3085567  75.9046040  20.8113532
  65.5710085  77.0029388  21.5472618  73.4664663  89.9507534  20.7596290
  73.3934834  90.7562506  21.2715594  73.0242056  90.1499500  19.9344311
  73.2554442  89.1879304  14.2699111  72.4721964  89.7300984  14.3637336
  73.9547188  89.7053284  14.6693353  76.5651093  74.9973934  16.9133317
  77.0619792  74.2443896  16.5934387  75.7938074  75.0338250  16.3476526
  84.4180850  80.7014299  18.5551608  84.4070726  81.5839015  18.1845541
  83.5498229  80.3485850  18.3606145  75.9263346  89.8494368  22.9154448
  76.6391318  90.4841833  22.8430350  75.4353375  89.9458234  22.0994450
  77.6480873  83.7545621  14.4871740  76.7137152  83.8747083  14.3176444
  77.8257542  82.8518088  14.2231750  73.1486061  77.1391317  16.6405001
  72.7783849  76.5862357  17.3285907  73.6445154  76.5349450  16.0880001
  81.0353425  79.5962940  15.0221774  81.5013877  80.4290932  14.9482077
  81.4860925  79.1307922  15.7267033  70.9775260  87.5988812  23.7360019
  71.6784719  88.2325295  23.8889413  70.5070375  87.9403543  22.9755659
  79.1029656  85.9406761  12.0207926  79.3789500  85.8263356  12.9301800
  78.2334154  85.5424246  11.9820099  79.0070087  71.9643527  19.0612676
  78.0933167  72.1947754  19.2294883  79.4363189  72.0481971  19.9126708
  78.7776546  80.1533419  21.5612570  78.1247996  80.4009327  20.9065022
  79.1556926  79.3397557  21.2275047  75.7383720  90.1893112  15.6640740
  75.9206114  89.3714768  16.1268492  76.5616706  90.4060804  15.2265630
  76.0725885  89.1161297  12.9255788  76.6013652  88.6053752  12.3125951
  76.3354105  88.8003828  13.7901321  74.8264119  80.8953230  28.0478607
  74.1504756  80.7947359  28.7180982  75.6491753  80.7392444  28.5114604
  66.5742978  87.1325167  20.6691122  67.1596415  86.3868855  20.8019026
  66.3767816  87.4429123  21.5527786  69.4281633  90.1676414  15.6853564
  68.7592008  90.6522542  15.2017604  69.2894503  90.4145634  16.5996943
  61.1660633  79.7030767  19.3895565  61.2044732  79.1694358  20.1832683
  60.6600925  79.1765972  18.7706542  73.5686902  92.2020158  22.2836223
  74.1205210  92.3651779  23.0485308  73.9093095  92.7924595  21.6116248
  68.5451395  74.5495307  22.8858107  68.6092721  75.4110138  22.4735505
  68.4818515  73.9369309  22.1530466  68.0203667  76.6218440  26.5331142
  68.6475706  76.2395517  27.1468666  67.1631586  76.4032642  26.8986834
  78.4197776  87.0281415  28.1384877  78.9637680  87.6411373  27.6439832
  77.8384621  87.5860993  28.6551890  64.7969210  78.4294869  12.4649496
  65.0922651  77.5205547  12.4116550  63.8957246  78.4082608  12.1430499
  76.7055289  90.1502133  19.2699905  76.5806428  89.3491873  18.7610850
  77.3634380  90.6448326  18.7813875  68.3263457  76.5050866  18.4477045
  67.6050043  77.1186833  18.3084518  69.1156713  77.0408630  18.3693691
  78.7690197  87.9511153  20.8979455  77.8220533  87.8316504  20.8257782
  79.1172970  87.0633651  20.9805716  71.1289771  73.8405292  24.7217697
  71.6524173  74.0867589  25.4844006  70.9102104  74.6725327  24.3020834
  66.5257052  76.1108967  12.5888822  66.1969758  75.2306346  12.4063928
  66.8796422  76.0556635  13.4765211  75.7736631  87.7463869  17.0983807
  75.6261593  86.8180577  17.2791377  76.5990124  87.7683960  16.6140882
  69.6398875  76.3981936  12.9564299  69.9794947  76.9267858  12.2342908
  70.0870995  76.7362343  13.7322866  79.3770752  88.5692428  18.1848680
  80.3017300  88.3635289  18.0473131  79.2086056  88.3208829  19.0938021
  72.3342316  74.7818987  22.4067367  71.9939136  73.9826800  22.8088047
  71.6281322  75.0820698  21.8344201  72.9858788  71.8668300  20.8594690
  73.8084857  71.3928778  20.7373581  73.2296851  72.6458783  21.3593377
  71.6267022  74.8956558  11.1557592  72.3475385  75.2737811  10.6521309
  71.0032326  75.6145435  11.2592570  75.7698145  75.6001707  12.0915924
  75.9861759  76.4826345  11.7904753  75.2892212  75.2087920  11.3621566
  70.5097366  78.5587420  18.6686669  70.3641947  78.8727723  19.5610951
  70.0322570  79.1772321  18.1157568  72.3693749  75.5489968  18.7167559
  72.3555318  74.6531062  18.3799857  73.0866177  75.5560632  19.3505845
  74.2219880  75.9827308  20.7620686  73.9637658  76.9044379  20.7605016
  73.6904920  75.5857743  21.4521150  64.9843029  81.0992765  21.6074330
  64.4396497  81.8752573  21.7394605  65.8622378  81.4463569  21.4493452
  71.7730645  74.4304349  13.9855129  71.8946556  73.5020995  14.1846016
  71.4832688  74.4443035  13.0733444  74.6421836  72.1159259  17.1221849
  74.6643532  72.1798592  16.1673828  75.0589895  71.2763768  17.3162355
  85.0205460  81.8514519  15.1601071  85.4636606  81.1021844  14.7620194
  84.1431970  81.8424655  14.7774803  65.7709050  80.2262661  24.5004487
  65.0290786  80.3745296  25.0869117  65.4501795  80.4870927  23.6371236
  73.7152713  89.7678639  24.2984877  74.0239839  89.5227786  25.1707577
  74.5128195  89.9725278  23.8103747  73.7373325  91.9216549  16.5290254
  73.2978315  91.4292927  17.2223110  74.4881442  91.3789516  16.2882329
  66.2165664  88.1128090  16.5314882  67.0423684  87.8131862  16.1513525
  65.8659716  87.3435712  16.9804670  71.1847197  87.4654558  18.6012555
  70.5627206  86.8025263  18.3014783  71.8552064  87.4915690  17.9186203
  64.4174269  86.0314416  17.4903815  63.5806177  85.6036590  17.3087817
  64.3897915  86.2246859  18.4274606  71.2571725  75.9436346  28.1945061
  71.3059880  76.8198469  27.8122831  71.7994239  75.4013739  27.6216705
  81.7426570  86.4877469  27.4746198  80.9522114  86.4701608  26.9350698
  81.5059925  87.0265763  28.2295235  81.8624445  83.3369936  24.7878927
  81.9122450  83.1719943  25.7294450  81.7538369  82.4697195  24.3976808
  70.7460704  86.0158481  12.0771016  70.8948824  86.6993946  11.4237689
  71.5527148  85.9963571  12.5920472  79.1528208  79.3200864  26.1038234
  80.0538071  79.1807328  25.8122231  79.2276182  79.4855318  27.0436411
  73.4871013  76.6967718  24.9491420  72.6174323  76.9901284  24.6774008
  73.7230494  77.2808163  25.6698684  83.3642642  85.7566877  25.0320948
  83.0727451  86.1196858  25.8684409  82.7514774  85.0433885  24.8534281
  84.5638325  83.3219757  17.5523519  85.3985216  83.7609561  17.7161079
  84.6997453  82.8458410  16.7331764  81.6129831  80.8799492  23.5001006
  82.0883952  81.0727138  22.6919858  80.6895396  80.9358677  23.2544390
  68.5013337  82.0423659  13.0832085  68.2559379  81.1385989  13.2812295
  68.6709252  82.0440809  12.1411563  76.1910047  72.9147335  22.4656840
  76.7091991  73.6508362  22.1403329  75.8365180  73.2211329  23.3003599
  67.7708985  77.7752016  10.5818246  67.0778230  77.8496371   9.9258282
  67.5260737  77.0112360  11.1039763  76.4422641  69.3347618  17.9857737
  76.7224395  68.6670807  18.6118163  77.2273248  69.5276713  17.4732401
  80.3131499  77.7565252  21.7329312  81.2648922  77.8563349  21.7541536
  80.1434950  76.9643520  22.2427396  78.3345879  74.8420835  21.9188713
  77.7395811  75.1225848  21.2235202  78.0495576  75.3314736  22.6905454
  82.7919577  80.9771371  20.8471612  82.7595897  80.0387372  21.0331296
  83.4020201  81.0555408  20.1137437  74.6302908  79.8467424   6.8898816
  75.5762013  79.7173633   6.9587234  74.2517153  79.1082086   7.3668244
  82.9414066  77.7682415  20.8929895  82.4253114  76.9840872  20.7059824
  83.8254014  77.4401131  21.0576414  80.6024793  71.5123430  16.8525708
  80.4049614  71.2038519  17.7369040  81.2124498  72.2385069  16.9823637
  88.6096127  82.0387378  19.9877648  89.3399516  81.7772666  20.5485352
  88.0003073  81.3016100  20.0279716  86.6911424  80.1795241  20.5852100
  85.9644588  80.0451206  19.9768591  86.2758711  80.4872069  21.3908818
  74.5141601  83.8985171  28.3499473  75.4344610  84.0763770  28.5439519
  74.4791184  82.9541216  28.1979172  72.8145825  77.7717401   6.8253701
  71.9077281  77.4750514   6.9016415  73.0921806  77.4747219   5.9587987
  63.7323766  79.0923764  17.2752747  63.4126550  78.2389072  16.9827121
  63.1857194  79.3072342  18.0310715  67.5103673  81.8086205  20.9922254
  67.7289683  82.7403313  21.0110288  67.9229447  81.4494180  21.7777058
  74.4307891  72.3154291  12.9797942  73.6208619  71.9701375  13.3553188
  75.1192308  72.0061834  13.5685554  76.3598439  71.3932337  14.6022239
  76.9129478  71.8127791  15.2612262  76.5968526  70.4668085  14.6445195
  72.3831539  77.3819411  30.3825003  72.2828265  78.3313768  30.3137094
  72.1653081  77.0537650  29.5101073  71.5844610  74.6304336   6.9665680
  72.4463774  74.9559234   7.2261498  71.7694954  73.8435832   6.4538746
  63.6012026  82.7126676  19.2445869  62.9075497  82.2980629  18.7315823
  64.3485017  82.7547212  18.6479288  79.7377246  73.5032862  14.1100903
  79.1575915  74.1617667  13.7278956  79.4713179  72.6810207  13.6988321
  78.1880813  72.9037920  16.3122223  78.6880591  73.0154455  15.5036542
  78.8316421  72.5998973  16.9523032  72.2462809  80.8116550  29.1990064
  71.7629890  81.6116910  29.4053953  72.3323748  80.8224495  28.2457508
  65.5148768  82.6444929  17.1211884  65.4919456  82.7432617  16.1693767
  65.8249405  83.4910080  17.4429050  68.1736146  84.7021085  21.2358498
  69.1279400  84.6705027  21.1688430  67.9748670  84.2411708  22.0508724
  68.7635528  83.2722201  23.8029296  69.5828417  83.7666279  23.8264133
  69.0372336  82.3554169  23.7746863  78.5202124  75.6632953  13.1657251
  77.6327979  75.9482603  12.9477446  78.9356113  75.5026716  12.3184528
  81.8716661  75.6879474  16.8811591  82.6477051  76.1775926  17.1536207
  81.1464795  76.1137528  17.3383460  84.3089219  76.4007093  17.9385531
  84.9033710  76.1602829  17.2278840  84.3815803  75.6814224  18.5659068
  66.5286375  90.2440704  18.2528696  66.3940843  89.4841105  17.6866694
  66.1118437  90.9681604  17.7857485  78.4943148  81.1787489  13.3807542
  78.4378350  81.6356040  12.5415174  79.0471491  80.4178173  13.2030384
  82.3047954  76.9677221  14.2057661  82.0484888  76.5673856  15.0365869
  81.6800822  77.6821015  14.0807800  86.6160292  79.7073294  16.7128952
  86.0559850  79.7766483  17.4860515  86.0103795  79.5314279  15.9928449
  69.6855501  91.1410021  18.4647139  69.5687885  92.0855454  18.3625829
  68.8647947  90.8383583  18.8532938  79.2277927  82.3692270  10.6760071
  79.1726731  82.2036541   9.7348515  78.6023983  83.0768303  10.8322260
  64.0170442  77.6060334  24.5021493  64.6629306  77.0959288  24.9908718
  63.8087594  78.3429016  25.0764918  76.5423835  84.6741182  30.0013634
  77.4114994  84.8481834  29.6400268  76.0630586  85.4935599  29.8789363
  72.5374053  71.8700379  10.2545389  72.5252723  72.8142219  10.4113660
  73.4297475  71.6870524   9.9604850  70.7110015  91.7938283  21.6803067
  71.6137262  91.8261893  21.9969562  70.4847385  90.8638734  21.6949403
  72.4663617  90.5469269  18.3413146  71.5159248  90.5471131  18.2277518
  72.7696103  89.8002004  17.8249180  76.3526172  68.4643156  14.5091326
  75.5858568  67.9101642  14.6548008  76.7636877  68.5365024  15.3705478
  68.3567933  74.7527952  28.5996507  69.2199395  74.3964756  28.8099832
  67.7833344  74.4141846  29.2871911  85.4925800  97.4892088  25.3006638
  85.4814440  97.0944886  24.4287142  85.6546439  96.7558160  25.8940410
  82.2133061 100.2729199  24.2485822  81.9222927 101.1774830  24.1332489
  82.8490045 100.3145727  24.9629892  90.6791426  87.7578069  21.8439703
  90.3474751  88.6273480  21.6200918  90.0837040  87.4414353  22.5233734
  77.9844238  96.0537685  18.1116110  78.1136620  96.3072164  19.0255521
  77.3041690  96.6465393  17.7920765  84.6460955  93.8962801  26.8667951
  83.8694290  94.4556721  26.8570815  85.2851519  94.3819584  27.3882821
  92.4381736  90.6789594  20.7010927  91.7956116  90.9722127  20.0550722
  91.9336665  90.5642514  21.5064124  82.9007328  96.7048254  26.4285918
  83.6422012  97.2433298  26.1520741  82.1944313  97.3314543  26.5857469
  88.3762667  98.8477395  25.0258079  88.7846023  98.4059805  24.2812712
  87.6539929  98.2730022  25.2792272  84.7293737  93.7850001  22.3991636
  85.5754933  94.2089415  22.5426285  84.6692375  93.1283626  23.0930199
  87.8793183  91.4454370  24.0572810  87.6354115  92.1996430  23.5207085
  88.1553113  91.8239717  24.8920057  87.4357875  90.6010803  19.6386647
  86.5742354  90.8992056  19.9303385  87.4620309  90.8181202  18.7067680
  81.6368692  93.8587902  27.2301228  81.0067352  94.5404183  27.4636625
  81.5304779  93.7470984  26.2854366  76.9313664  93.5259698  18.1567152
  76.1412718  93.7817227  17.6807262  77.4224911  94.3408036  18.2619192
  84.7134077 100.4148981  23.0633143  84.7778509 100.8769388  23.8991315
  84.0045001  99.7846346  23.1915453  75.2151367  93.7790189  20.5882143
  75.4659405  94.6637199  20.8539719  75.7510915  93.5994790  19.8157234
  80.9149434  88.1608668  29.5926479  80.5216380  87.6074867  30.2674123
  81.7315575  88.4719247  29.9832996  83.8317395  89.5766547  27.1846735
  84.5727109  90.1773700  27.1051198  84.0635318  88.8344185  26.6264778
  78.9758733  94.7622915  25.4624965  78.8612248  93.8608172  25.7632064
  78.1203251  95.0086611  25.1109782  86.0550571 102.7040655  27.0612466
  85.6114425 101.9177033  26.7433370  86.7167785 102.8919805  26.3956356
  84.6104863 100.4987584  25.9317375  85.1433200  99.7375872  25.7016683
  84.0818944 100.2061236  26.6741530  87.7774558  85.6047650  21.4611017
  87.4338828  86.4949292  21.3850128  88.1453521  85.4149308  20.5980602
  86.8571099  87.9752305  19.4260250  86.3535894  87.9382441  18.6128056
  87.1501705  88.8845048  19.4856907  83.1013984  88.0591035  18.4326432
  83.9666981  87.8633844  18.0732321  83.1691493  87.8301387  19.3595789
  80.7076304  90.2893243  15.8042799  81.2820055  90.0668424  15.0715992
  81.2947286  90.3581937  16.5571400  83.0098971  87.1634492  14.5317868
  82.3563384  86.8483509  13.9074483  82.9679445  86.5410232  15.2577691
  89.5762224  84.8641209  16.5628755  89.8821101  84.0038573  16.2754670
  90.3014829  85.4558830  16.3627749  87.3849875  94.2413887  23.6610218
  87.7399263  94.4685360  24.5204684  88.0322006  94.5732263  23.0387474
  81.2789738  91.3490418  20.4456560  81.9189118  91.2079177  19.7479523
  80.4467269  91.0624931  20.0695162  78.2818355  91.3190743  15.2229546
  78.5425172  92.2336076  15.1138707  79.1035527  90.8515185  15.3726159
  79.7543280  92.7328500  22.3928371  80.4266333  92.5245862  21.7441020
  78.9273067  92.5350586  21.9533603  85.6568852  89.3590441  24.4094032
  85.0096767  90.0580390  24.3158508  86.4269867  89.7926585  24.7770280
  89.0647650  99.6239293  27.4844585  88.9133156  99.3949845  26.5674669
  89.0552329 100.5809894  27.4975930  85.8332986  97.1971206  22.4690851
  86.7625046  97.3482365  22.2959819  85.4124016  97.2855226  21.6139498
  80.1570777  96.0071103  23.1530808  80.0190575  95.2751342  23.7542347
  81.0675701  95.9180003  22.8714996  82.7853078  95.7191062  22.6414488
  83.4952696  95.0784254  22.6001106  82.7422386  95.9703957  23.5640668
  81.4982012  92.7056280  24.4610127  80.9619369  92.2547019  25.1131724
  80.9098720  92.8402189  23.7180592  72.4286411  96.9522091  17.1178098
  73.1157451  96.6383821  16.5299113  72.2734540  97.8563456  16.8445349
  77.2321133  91.8412288  21.5463122  77.1479322  91.2337957  20.8113532
  76.4103840  92.3321306  21.5472618  81.8169014 102.9280729  23.7360019
  82.5178474 103.5617212  23.8889413  81.3464129 103.2695461  22.9755659
  89.8463842  87.2935445  19.0612676  88.9326922  87.5239672  19.2294883
  90.2756943  87.3773889  19.9126708  85.6657873  96.2245148  28.0478607
  84.9898510  96.1239277  28.7180982  86.4885507  96.0684362  28.5114604
  77.4136732 102.4617084  20.6691122  77.9990169 101.7160772  20.8019026
  77.2161571 102.7721041  21.5527786  72.0054387  95.0322685  19.3895565
  72.0438487  94.4986275  20.1832683  71.4994680  94.5057890  18.7706542
  79.3845149  89.8787225  22.8858107  79.4486476  90.7402056  22.4735505
  79.3212270  89.2661227  22.1530466  78.8597422  91.9510358  26.5331142
  79.4869461  91.5687435  27.1468666  78.0025341  91.7324560  26.8986834
  89.2591531 102.3573333  28.1384877  89.8031434 102.9703291  27.6439832
  88.6778375 102.9152911  28.6551890  79.1657212  91.8342783  18.4477045
  78.4443797  92.4478751  18.3084518  79.9550467  92.3700548  18.3693691
  81.9683525  89.1697210  24.7217697  82.4917927  89.4159506  25.4844006
  81.7495858  90.0017245  24.3020834  83.1736070  90.1110905  22.4067367
  82.8332891  89.3118718  22.8088047  82.4675077  90.4112616  21.8344201
  83.8252542  87.1960217  20.8594690  84.6478611  86.7220695  20.7373581
  84.0690606  87.9750701  21.3593377  81.3491121  93.8879338  18.6686669
  81.2035702  94.2019641  19.5610951  80.8716324  94.5064238  18.1157568
  83.2087504  90.8781886  18.7167559  83.1949072  89.9822979  18.3799857
  83.9259932  90.8852550  19.3505845  85.0613634  91.3119226  20.7620686
  84.8031412  92.2336297  20.7605016  84.5298675  90.9149661  21.4521150
  75.8236783  96.4284682  21.6074330  75.2790251  97.2044490  21.7394605
  76.7016133  96.7755487  21.4493452  85.4815590  87.4451177  17.1221849
  85.5037287  87.5090510  16.1673828  85.8983649  86.6055685  17.3162355
  76.6102805  95.5554579  24.5004487  75.8684541  95.7037214  25.0869117
  76.2895549  95.8162844  23.6371236  82.0965479  91.2728264  28.1945061
  82.1453635  92.1490386  27.8122831  82.6387993  90.7305657  27.6216705
  92.5820325 101.8169387  27.4746198  91.7915869 101.7993526  26.9350698
  92.3453679 102.3557681  28.2295235  92.7018200  98.6661853  24.7878927
  92.7516205  98.5011861  25.7294450  92.5932123  97.7989112  24.3976808
  89.9921962  94.6492781  26.1038234  90.8931825  94.5099246  25.8122231
  90.0669937  94.8147236  27.0436411  84.3264768  92.0259636  24.9491420
  83.4568077  92.3193202  24.6774008  84.5624248  92.6100081  25.6698684
  87.0303801  88.2439253  22.4656840  87.5485745  88.9800280  22.1403329
  86.6758934  88.5503246  23.3003599  87.2816396  84.6639535  17.9857737
  87.5618149  83.9962725  18.6118163  88.0667003  84.8568631  17.4732401
  91.1525254  93.0857169  21.7329312  92.1042677  93.1855267  21.7541536
  90.9828704  92.2935438  22.2427396  89.1739633  90.1712753  21.9188713
  88.5789566  90.4517765  21.2235202  88.8889330  90.6606654  22.6905454
  85.3535355  99.2277088  28.3499473  86.2738365  99.4055687  28.5439519
  85.3184938  98.2833134  28.1979172  74.5717520  94.4215682  17.2752747
  74.2520305  93.5680990  16.9827121  74.0250948  94.6364260  18.0310715
  78.3497428  97.1378123  20.9922254  78.5683437  98.0695231  21.0110288
  78.7623202  96.7786097  21.7777058  83.2225293  92.7111329  30.3825003
  83.1222020  93.6605686  30.3137094  83.0046835  92.3829568  29.5101073
  74.4405780  98.0418593  19.2445869  73.7469252  97.6272546  18.7315823
  75.1878771  98.0839130  18.6479288  83.0856563  96.1408467  29.1990064
  82.6023645  96.9408828  29.4053953  83.1717502  96.1516412  28.2457508
  79.0129901 100.0313002  21.2358498  79.9673154  99.9996945  21.1688430
  78.8142424  99.5703626  22.0508724  79.6029283  98.6014118  23.8029296
  80.4222172  99.0958197  23.8264133  79.8766090  97.6846086  23.7746863
  74.8564197  92.9352252  24.5021493  75.5023061  92.4251206  24.9908718
  74.6481348  93.6720934  25.0764918  87.3817589 100.0033100  30.0013634
  88.2508749 100.1773752  29.6400268  86.9024341 100.8227516  29.8789363
  87.1919927  83.7935073  14.5091326  86.4252323  83.2393560  14.6548008
  87.6030632  83.8656942  15.3705478  79.1961688  90.0819869  28.5996507
  80.0593150  89.7256674  28.8099832  78.6227099  89.7433764  29.2871911
  91.7543189 103.4900586  29.5926479  91.3610134 102.9366784  30.2674123
  92.5709329 103.8011164  29.9832996  90.0355442 105.4111787  28.5996507
  90.8986904 105.0548592  28.8099832  89.4620853 105.0725682  29.2871911
  52.9744537  28.5078457  12.0251945  52.9633178  28.1131256  11.1532449
  53.1365177  27.7744530  12.6185717  49.6951799  31.2915569  10.9731129
  49.4041665  32.1961200  10.8577795  50.3308783  31.3332097  11.6875199
  54.6541684  30.9776985   7.9680923  54.3542407  31.8802023   7.8596730
  54.3092743  30.7109168   8.8202076  52.1279693  24.9149170  13.5913257
  51.3513027  25.4743090  13.5816122  52.7670256  25.4005953  14.1128127
  50.3826066  27.7234624  13.1531224  51.1240750  28.2619668  12.8766048
  49.6763051  28.3500912  13.3102776  55.8581405  29.8663764  11.7503386
  56.2664761  29.4246175  11.0058018  55.1358667  29.2916392  12.0037579
  52.2112475  24.8036371   9.1236943  53.0573670  25.2275784   9.2671592
  52.1511113  24.1469995   9.8175506  56.1810220  30.4264955   5.5055675
  55.5519082  30.5910669   4.8031743  55.7935882  30.8406564   6.2766639
  60.0599452  31.3619393   2.8600038  59.3750490  31.7418294   2.3097072
  60.1443301  31.9714719   3.5931986  55.3611921  22.4640739  10.7818116
  55.1172852  23.2182800  10.2452392  55.6371851  22.8426087  11.6165363
  57.3150383  29.0079352   9.4595382  57.5267279  29.6511112   8.7829763
  57.2680132  28.1741668   8.9917312  49.1187429  24.8774272  13.9546534
  48.4886090  25.5590553  14.1881931  49.0123517  24.7657353  13.0099673
  58.4296211  31.8851307   7.6317739  59.2513655  31.4831494   7.3500421
  58.4258614  31.7819541   8.5833855  52.1952815  31.4335350   9.7878450
  52.2597247  31.8955758  10.6236622  51.4863739  30.8032715   9.9160760
  66.5202204  28.2290056   3.9802711  65.7665913  27.6597454   3.8246715
  66.6549746  28.1952720   4.9273345  48.3968172  19.1795038  16.3171785
  48.0035118  18.6261236  16.9919430  49.2134312  19.4905616  16.7078303
  51.3136133  20.5952917  13.9092042  52.0545846  21.1960070  13.8296504
  51.5454056  19.8530555  13.3510085  46.4577471  25.7809284  12.1870272
  46.3430986  24.8794541  12.4877371  45.6021989  26.0272981  11.8355088
  53.5369309  33.7227024  13.7857772  53.0933163  32.9363403  13.4678677
  54.1986522  33.9106175  13.1201663  48.2956430  35.2522826   8.3118451
  48.8463855  35.1239889   7.5395445  47.4567906  35.5517715   7.9613344
  55.6350547  34.0029824  11.8139174  55.6169022  34.8238705  11.3219443
  56.5570467  33.8783900  12.0389315  52.0923601  31.5173954  12.6562682
  52.6251938  30.7562242  12.4261990  51.5637682  31.2247606  13.3986836
  58.4369160  28.8408967   5.2848540  57.7792834  29.5308228   5.3728669
  59.2409559  29.2305399   5.6282527  56.4569354  34.0135838   2.3981443
  56.7492328  34.5740895   1.6793808  56.9667975  34.3064399   3.1534602
  54.8668613  25.2600256  10.3855525  55.2218001  25.4871729  11.2449991
  55.5140744  25.5918633   9.7632780  60.6235729  30.4495219   6.1016126
  61.0572236  30.3570508   6.9499180  61.3367310  30.4252720   5.4636142
  54.3563624  34.0497313   7.6349226  54.4100647  34.6188250   8.4026942
  53.4878406  34.2199198   7.2703263  61.4851279  30.4918920   8.6349011
  61.6787169  31.3964730   8.8808286  61.3851897  30.0326339   9.4687596
  53.1387590  20.3776810  11.1339338  52.4915505  21.0766760  11.0403815
  53.9088605  20.8112954  11.5015587  56.5466388  30.6425663  14.2089892
  56.3951894  30.4136214  13.2919975  56.5371067  31.5996264  14.2221237
  53.3151724  28.2157575   9.1936158  54.2443784  28.3668735   9.0205125
  52.8942754  28.3041596   8.3384805  52.1140056  32.2408240   6.9634696
  51.9751142  31.8727024   7.8360634  51.3254652  32.7555879   6.7918654
  47.6389515  27.0257472   9.8776115  47.5009313  26.2937711  10.4787654
  48.5494439  26.9366373   9.5960302  50.2671816  26.7377432   9.3659794
  50.9771434  26.0970624   9.3246413  50.2241124  26.9890327  10.2885975
  58.2558594  33.6744785  12.2866374  58.1971141  32.9904005  11.6196957
  58.6578113  34.4163775  11.8347000  47.2749293  40.4906699   5.0800092
  47.5145891  41.1225223   5.7579111  46.4318490  40.1394739   5.3665452
  58.2576002  31.6384369  10.5180353  57.3702780  31.3010291  10.6406752
  58.8274553  30.9067400  10.7549119  51.7877155  36.2985821   7.4841596
  51.7147327  37.1040793   7.9960901  51.3454548  36.4977787   6.6589618
  62.7393342  27.0492586   5.2796915  62.7283218  27.9317302   4.9090848
  61.8710722  26.6964137   5.0851452  54.2475839  36.1972655   9.6399755
  54.9603811  36.8320120   9.5675657  53.7565867  36.2936521   8.8239757
  49.2987752  33.9467099  10.4605326  49.9997212  34.5803582  10.6134720
  48.8282867  34.2881830   9.7000965  57.0989038  26.5011706   8.2857876
  56.4460488  26.7487614   7.6310329  57.4769418  25.6875844   7.9520354
  54.0596212  36.5371399   2.3886047  54.2418606  35.7193055   2.8513799
  54.8829198  36.7539092   1.9510937  53.1476611  27.2431517  14.7723913
  52.4717248  27.1425647  15.4426289  53.9704245  27.0870731  15.2359911
  44.8955470  33.4803454   7.3936429  45.4808907  32.7347142   7.5264333
  44.6980309  33.7907411   8.2773092  51.8899394  38.5498445   9.0081529
  52.4417702  38.7130066   9.7730615  52.2305587  39.1402883   8.3361554
  46.3416160  22.9696727  13.2576448  46.9688199  22.5873804  13.8713973
  45.4844079  22.7510929  13.6232141  56.7410268  33.3759702  14.8630184
  57.2850172  33.9889661  14.3685139  56.1597113  33.9339281  15.3797197
  55.0267781  36.4980420   5.9945212  54.9018921  35.6970160   5.4856157
  55.6846872  36.9926614   5.5059181  57.0902690  34.2989440   7.6224762
  56.1433025  34.1794792   7.5503088  57.4385463  33.4111938   7.7051023
  54.0949123  34.0942157   3.8229114  53.9474085  33.1658864   4.0036684
  54.9202616  34.1162247   3.3386189  57.6983245  34.9170715   4.9093987
  58.6229792  34.7113577   4.7718438  57.5298548  34.6687117   5.8183328
  52.0365205  36.1156926  11.0230184  52.3452332  35.8706073  11.8952883
  52.8340687  36.3203565  10.5349054  52.0585817  38.2694836   3.2535560
  51.6190808  37.7771215   3.9468417  52.8093934  37.7267804   3.0127635
  49.5784217  22.2914633  14.9190368  49.6272372  23.1676756  14.5368138
  50.1206731  21.7492026  14.3462011  60.0639063  32.8355756  14.1991505
  59.2734606  32.8179895  13.6596004  59.8272417  33.3744050  14.9540542
  60.1836938  29.6848223  11.5124234  60.2334943  29.5198230  12.4539756
  60.0750861  28.8175482  11.1222114  57.4740700  25.6679151  12.8283540
  58.3750563  25.5285616  12.5367538  57.5488675  25.8333606  13.7681718
  51.8083505  23.0446006  11.6736727  50.9386815  23.3379572  11.4019315
  52.0442986  23.6286451  12.3943990  61.6855135  32.1045164  11.7566255
  61.3939943  32.4675145  12.5929716  61.0727266  31.3912173  11.5779587
  62.8850817  29.6698044   4.2768825  63.7197708  30.1087848   4.4406386
  63.0209946  29.1936697   3.4577071  59.9342323  27.2277779  10.2246313
  60.4096444  27.4205425   9.4165164  59.0107888  27.2836965   9.9789697
  58.6343992  24.1043539   8.4574619  59.5861415  24.2041637   8.4786843
  58.4647442  23.3121808   8.9672703  61.1132070  27.3249659   7.5716918
  61.0808390  26.3865659   7.7576602  61.7232693  27.4033695   6.8382743
  61.2626558  24.1160702   7.6175202  60.7465607  23.3319159   7.4305130
  62.1466507  23.7879419   7.7821721  66.9308619  28.3865666   6.7122955
  67.6612008  28.1250954   7.2730658  66.3215565  27.6494387   6.7525023
  65.0123917  26.5273528   7.3097406  64.2857080  26.3929493   6.7013898
  64.5971203  26.8350357   8.1154124  52.8354093  30.2463458  15.0744779
  53.7557102  30.4242057  15.2684826  52.8003676  29.3019503  14.9224479
  50.7044031  23.7297698  17.1070309  50.6040758  24.6792055  17.0382401
  50.4865573  23.4015937  16.2346380  50.5675301  27.1594837  15.9235371
  50.0842383  27.9595197  16.1299260  50.6536240  27.1702782  14.9702815
  46.4948638  31.0499372   7.9603805  47.4491892  31.0183314   7.8933736
  46.2961162  30.5889995   8.7754031  47.0848020  29.6200488  10.5274603
  47.9040909  30.1144566  10.5509440  47.3584828  28.7032456  10.4992170
  48.0067993  37.4888308   5.1892445  47.8900377  38.4333741   5.0871136
  47.1860439  37.1861870   5.5778245  54.8636327  31.0219469  16.7258940
  55.7327487  31.1960121  16.3645575  54.3843078  31.8413886  16.6034670
  49.0322507  38.1416570   8.4048374  49.9349754  38.1740180   8.7214869
  48.8059877  37.2117021   8.4194710  50.7876109  36.8947557   5.0658452
  49.8371740  36.8949418   4.9522825  51.0908595  36.1480291   4.5494487
  46.6780426  21.1006239  15.3241814  47.5411887  20.7443044  15.5345138
  46.1045836  20.7620134  16.0117218  66.5228803  42.7308095   6.1304215
  67.1607213  42.6114842   5.4267555  66.4049646  43.6788939   6.1892167
  63.3318509  42.6835523   6.0665740  62.9937020  42.5676588   5.1786274
  64.2008277  42.2826688   6.0466746  59.1905325  44.5371000   2.0562630
  58.6270190  44.4460937   1.2878918  59.0757720  43.7170904   2.5365123
  63.8138292  43.8370375  12.0251945  63.8026933  43.4423173  11.1532449
  63.9758931  43.1036448  12.6185717  56.7369757  46.0322191   4.8946851
  57.5291048  45.6913016   4.4793150  56.9766407  46.1417166   5.8149004
  64.7704883  48.2041967  -2.6322905  64.1192863  48.7896048  -3.0188891
  65.5649246  48.7348162  -2.5727867  58.6960511  45.2931104  -2.2335770
  59.4691387  44.7460092  -2.3722894  59.0485909  46.1575354  -2.0221309
  60.5345553  46.6207487  10.9731129  60.2435419  47.5253118  10.8577795
  61.1702537  46.6624014  11.6875199  61.4601760  43.9984335   7.5632489
  62.0565332  43.7740358   6.8489452  61.5176731  43.2569081   8.1657937
  66.0770071  40.4559549   3.2057423  66.8633160  40.0378972   2.8547840
  66.3408775  41.3605641   3.3739071  66.2480148  45.8932399  -2.0953920
  65.6125981  45.9667026  -1.3833016  65.9177555  46.4825998  -2.7734841
  71.4778498  40.3934782   4.1090401  72.2103670  39.8233999   4.3428231
  70.7217854  40.0056383   4.5496907  60.7523077  43.3551877  -2.3992945
  60.6359335  42.6796780  -1.7311861  60.8625337  42.8684250  -3.2160792
  63.0954618  42.8162024   1.3053744  62.7312825  42.2892645   2.0166665
  63.9521734  42.4260493   1.1320229  69.0003919  34.1056356   8.5685010
  68.6687243  34.9751767   8.3446225  68.4049532  33.7892640   9.2479040
  65.4935438  46.3068902   7.9680923  65.1936161  47.2093941   7.8596730
  65.1486498  46.0401085   8.8202076  58.9447920  42.7582699   4.0017627
  58.0198416  42.6258913   4.2095319  59.1932333  43.5376918   4.4987570
  68.8932582  38.8251442   5.6478360  67.9849459  38.7566851   5.3537121
  68.8420178  39.3023387   6.4760186  62.7149326  40.3009581  -2.7138241
  62.5948951  40.7466632  -1.8752761  62.0201914  40.6494899  -3.2724703
  56.3056731  42.4015973   4.8361416  56.4349112  42.6550452   5.7500828
  55.6254182  42.9943681   4.5166071  60.4756218  53.0713223   0.9351890
  60.3980248  54.0221048   1.0140371  59.8717862  52.7259095   1.5926817
  62.9673448  40.2441088  13.5913257  62.1906782  40.8035008  13.5816122
  63.6064011  40.7297871  14.1128127  70.7594228  37.0267881   7.4256234
  70.1168609  37.3200414   6.7796029  70.2549157  36.9120801   8.2309431
  68.4134392  40.7731054  -1.8857907  69.3252248  41.0058441  -2.0610209
  67.9044039  41.3568098  -2.4482828  61.2219820  43.0526541  13.1531224
  61.9634504  43.5911585  12.8766048  60.5156806  43.6792830  13.3102776
  66.6975160  45.1955682  11.7503386  67.1058516  44.7538092  11.0058018
  65.9752421  44.6208309  12.0037579  63.0506230  40.1328289   9.1236943
  63.8967425  40.5567702   9.2671592  62.9904867  39.4761913   9.8175506
  67.0203974  45.7556872   5.5055675  66.3912837  45.9202587   4.8031743
  66.6329636  46.1698482   6.2766639  70.8993206  46.6911310   2.8600038
  70.2144244  47.0710212   2.3097072  70.9837056  47.3006637   3.5931986
  66.2005675  37.7932657  10.7818116  65.9566607  38.5474718  10.2452392
  66.4765606  38.1718005  11.6165363  68.1544138  44.3371269   9.4595382
  68.3661033  44.9803029   8.7829763  68.1073886  43.5033586   8.9917312
  65.7570367  36.9489090   6.3631954  64.8954846  37.2470344   6.6548692
  65.7832801  37.1659489   5.4312987  62.5731936  45.4931281   2.7705760
  63.0370282  45.7718984   1.9810382  62.3088734  44.5914725   2.5878850
  59.4656017  45.0402762   5.7085523  60.0357374  45.4690030   5.0703008
  60.0564129  44.7585347   6.4069709  61.5100822  41.6154433  -0.4204675
  62.2124866  42.0675477   0.0469251  61.1781451  40.9738252   0.2075218
  59.9581184  40.2066190  13.9546534  59.3279844  40.8882470  14.1881931
  59.8517272  40.0949271  13.0099673  55.2526156  39.8737986   4.8812459
  54.4625210  40.1295514   4.4052569  55.7437404  40.6886323   4.9864499
  69.2689966  47.2143225   7.6317739  70.0907409  46.8123412   7.3500421
  69.2652369  47.1111459   8.5833855  57.2040902  40.2382565   1.8395935
  56.4072065  40.3501259   2.3579431  56.9766494  40.5769217   0.9736826
  63.0346569  46.7627268   9.7878450  63.0991002  47.2247675  10.6236622
  62.3257493  46.1324633   9.9160760  53.5363859  40.1268476   7.3127449
  53.7871898  41.0115486   7.5785025  54.0723408  39.9473078   6.5402541
  77.3595959  43.5581973   3.9802711  76.6059667  42.9889371   3.8246715
  77.4943500  43.5244638   4.9273345  62.7494587  48.4295376  -0.3442570
  62.6140262  49.2746911   0.0842278  63.2904399  48.6314653  -1.1076636
  59.2361927  34.5086955  16.3171785  58.8428872  33.9553154  16.9919430
  60.0528067  34.8197534  16.7078303  56.2023984  45.9470814   0.2285355
  56.7148505  46.7414064   0.3790920  56.8546697  45.2497104   0.1618957
  58.0118869  49.0636570   2.3108108  58.1885497  49.9854535   2.1229092
  58.8075702  48.7494989   2.7402488  62.1529888  35.9244834  13.9092042
  62.8939601  36.5251988  13.8296504  62.3847810  35.1822472  13.3510085
  57.2971226  41.1101202  12.1870272  57.1824741  40.2086459  12.4877371
  56.4415743  41.3564899  11.8355088  64.3763063  49.0518942  13.7857772
  63.9326917  48.2655321  13.4678677  65.0380277  49.2398093  13.1201663
  59.1350184  50.5814744   8.3118451  59.6857610  50.4531807   7.5395445
  58.2961660  50.8809633   7.9613344  66.4744301  49.3321742  11.8139174
  66.4562777  50.1530623  11.3219443  67.3964221  49.2075817  12.0389315
  62.9317355  46.8465871  12.6562682  63.4645692  46.0854160  12.4261990
  62.4031437  46.5539523  13.3986836  66.0987050  31.9525937   8.1856324
  65.7551320  32.8427579   8.1095434  66.4666013  31.7627595   7.3225909
  54.1672901  44.2759468   1.0044926  55.0048123  44.6856476   0.7878633
  54.3451169  43.3358910   0.9745120  66.0637333  41.9434549  -3.3071241
  65.5483957  42.7139153  -3.0682854  65.7914642  41.2699685  -2.6838180
  63.6484444  36.7884249   1.7513997  62.7926041  36.3991100   1.5719636
  64.0611396  36.8676210   0.8913783  65.1783591  34.3230593   6.1505557
  64.6748386  34.2860728   5.3373362  65.4714198  35.2323335   6.2102214
  61.4226477  34.4069322   5.1571739  62.2879473  34.2112131   4.7977628
  61.4903986  34.1779674   6.0841095  71.0371607  44.6966903  -1.3718068
  70.2601050  44.3578063  -1.8162906  71.7163088  44.7019526  -2.0463103
  65.8523636  39.8161641  -1.4811460  65.5473772  40.1307790  -0.6301317
  66.8054078  39.8943061  -1.4384127  64.2970068  45.9751864   0.1681494
  63.7691430  45.2404624  -0.1445269  63.7957571  46.7526540  -0.0778538
  69.2762914  44.1700884   5.2848540  68.6186589  44.8600146   5.3728669
  70.0803313  44.5597316   5.6282527  59.0288796  36.6371530   2.5288105
  59.6032548  36.4146712   1.7961298  59.6159778  36.7060225   3.2816707
  68.0868373  42.5245257   3.3352482  68.6000255  43.1575249   3.8374192
  68.7369597  41.9246453   2.9695842  61.3311464  33.5112779   1.2563175
  60.6775876  33.1961796   0.6319790  61.2891938  32.8888520   1.9822998
  65.3490747  52.5029581  -3.9086847  64.6752446  52.8061278  -3.3001889
  65.7356569  53.3058662  -4.2581390  64.5649204  39.9994713   5.5810822
  63.6471765  40.2209660   5.4232511  64.9809347  40.0741023   4.7222530
  65.3484252  41.3986128   0.7113503  66.0956071  41.9107526   0.4020625
  65.6175841  41.0770181   1.5717896  63.6210902  43.8944669  -2.3059543
  62.7122121  43.6103702  -2.2087073  63.6505986  44.3143748  -3.1656236
  68.8530169  47.5051259   1.4631625  68.3992496  46.6642168   1.5196815
  68.2224136  48.1412657   1.8006405  67.7963089  38.4343245   2.6932292
  67.0585846  37.9220631   3.0242535  68.0489862  37.9943626   1.8815569
  67.2963108  49.3427755   2.3981443  67.5886083  49.9032812   1.6793808
  67.8061729  49.6356316   3.1534602  67.8974716  31.2119497   3.2874061
  68.2033593  30.3516860   2.9999976  68.6227321  31.8037117   3.0873055
  54.1899072  41.6150183   1.6755659  53.9923472  41.0219544   0.9506726
  53.6345736  41.3102393   2.3931598  62.1695796  41.5073290   3.7950252
  62.2244406  40.5547126   3.7192729  61.3586998  41.6632729   4.2791551
  63.3186990  45.4353413  -4.9671464  62.8806420  44.7189272  -5.4265827
  64.0597430  45.6629528  -5.5286373  60.1088156  40.1250349   1.5540631
  59.2956021  40.4244520   1.9605823  60.6047150  39.7306038   2.2715113
  62.2596734  50.1208106   3.4874896  62.2172912  50.3468953   2.5583428
  63.1759433  49.8871481   3.6360697  65.7062367  40.5892174  10.3855525
  66.0611755  40.8163647  11.2449991  66.3534499  40.9210551   9.7632780
  71.4360104  43.7110610   1.0904854  71.2978003  43.9012206   0.1626043
  71.0796323  44.4729993   1.5472905  59.6002231  37.6968705   7.1701866
  60.2401610  37.5557464   6.4724830  58.7679761  37.4103218   6.7940468
  71.4629484  45.7787137   6.1016126  71.8965991  45.6862426   6.9499180
  72.1761065  45.7544637   5.4636142  60.3762534  46.9971135   3.2836859
  61.1703133  46.5021456   3.0819434  59.6654227  46.4688999   2.9204564
  65.1957379  49.3789231   7.6349226  65.2494401  49.9480167   8.4026942
  64.3272160  49.5491116   7.2703263  56.6845298  41.1414217  -0.6403389
  55.7542886  41.0798673  -0.4233427  56.7802770  40.6190170  -1.4366747
  56.6030847  37.6669030   1.9474853  56.8637664  38.5814363   1.8384013
  57.4248019  37.1993473   2.0971466  58.0755772  39.0806787   9.1173678
  58.7478826  38.8724149   8.4686326  57.2485559  38.8828873   8.6778910
  72.3245034  45.8210837   8.6349011  72.5180924  46.7256648   8.8808286
  72.2245652  45.3618257   9.4687596  63.9781344  35.7068728  11.1339338
  63.3309259  36.4058678  11.0403815  64.7482360  36.1404872  11.5015587
  67.3860142  45.9717580  14.2089892  67.2345649  45.7428132  13.2919975
  67.3764822  46.9288182  14.2221237  64.1545479  43.5449493   9.1936158
  65.0837539  43.6960653   9.0205125  63.7336509  43.6333514   8.3384805
  62.9533810  47.5700157   6.9634696  62.8144896  47.2018942   7.8360634
  62.1648407  48.0847797   6.7918654  63.5481962  52.6709254  -1.6939768
  63.7233718  52.1997297  -0.8794145  62.8614750  53.2975020  -1.4658507
  64.5039026  46.9481760   4.3523534  64.1688858  46.9082530   5.2481183
  64.0042971  46.2826476   3.8793944  58.4783270  42.3549390   9.8776115
  58.3403067  41.6229629  10.4787654  59.3888193  42.2658290   9.5960302
  67.4398217  44.2937794  -5.3739407  66.8227388  43.5684623  -5.4706354
  66.9714706  45.0547155  -5.7172333  61.1065570  42.0669349   9.3659794
  61.8165189  41.4262542   9.3246413  61.0634878  42.3182244  10.2885975
  69.0952349  49.0036703  12.2866374  69.0364895  48.3195923  11.6196957
  69.4971867  49.7455693  11.8347000  59.8194504  39.0534567  11.1855434
  59.2831861  38.6025306  11.8377030  59.2311213  39.1880476  10.4425898
  58.1143048  55.8198617   5.0800092  58.3539646  56.4517141   5.7579111
  57.2712244  55.4686657   5.3665452  69.0969756  46.9676287  10.5180353
  68.2096535  46.6302208  10.6406752  69.6668307  46.2359318  10.7549119
  50.7498903  43.3000378   3.8423405  51.4369943  42.9862108   3.2544420
  50.5947032  44.2041743   3.5690656  55.5533625  38.1890575   8.2708428
  55.4691814  37.5816245   7.5358838  54.7316332  38.6799593   8.2717925
  62.6270910  51.6277739   7.4841596  62.5541081  52.4332711   7.9960901
  62.1848303  51.8269705   6.6589618  62.4160689  50.8649509   0.9944418
  61.6328211  51.4071189   1.0882642  63.1153434  51.3823489   1.3938659
  65.7257339  36.6744139   3.6378623  66.2226039  35.9214101   3.3179694
  64.9544321  36.7108455   3.0721833  73.5787097  42.3784504   5.2796915
  73.5676973  43.2609219   4.9090848  72.7104476  42.0256055   5.0851452
  65.0869593  51.5264573   9.6399755  65.7997565  52.1612038   9.5675657
  64.5959622  51.6228439   8.8239757  66.8087120  45.4315826   1.2117047
  65.8743399  45.5517288   1.0421751  66.9863788  44.5288293   0.9477057
  62.3092308  38.8161522   3.3650308  61.9390096  38.2632562   4.0531214
  62.8051400  38.2119655   2.8125308  70.1959671  41.2733145   1.7467081
  70.6620124  42.1061137   1.6727384  70.6467172  40.8078127   2.4512339
  60.1381507  49.2759017  10.4605326  60.8390966  49.9095499  10.6134720
  59.6676622  49.6173748   9.7000965  68.2635902  47.6176966  -1.2546767
  68.5395746  47.5033561  -0.3452893  67.3940401  47.2194451  -1.2934594
  68.1676334  33.6413732   5.7857982  67.2539414  33.8717959   5.9540189
  68.5969436  33.7252176   6.6372015  67.9382793  41.8303624   8.2857876
  67.2854243  42.0779531   7.6310329  68.3163172  41.0167762   7.9520354
  64.8989966  51.8663317   2.3886047  65.0812361  51.0484973   2.8513799
  65.7222952  52.0831009   1.9510937  65.2332132  50.7931502  -0.3498905
  65.7619898  50.2823957  -0.9628743  65.4960352  50.4774033   0.5146628
  63.9870366  42.5723435  14.7723913  63.3111003  42.4717564  15.4426289
  64.8097999  42.4162649  15.2359911  55.7349225  48.8095372   7.3936429
  56.3202661  48.0639059   7.5264333  55.5374063  49.1199328   8.2773092
  58.5887880  51.8446619   2.4098871  57.9198255  52.3292747   1.9262911
  58.4500750  52.0915839   3.3242250  50.3266879  41.3800972   6.1140872
  50.3650979  40.8464562   6.9077990  49.8207172  40.8536177   5.4951849
  62.7293148  53.8790362   9.0081529  63.2811456  54.0421984   9.7730615
  63.0699342  54.4694800   8.3361554  57.7057642  36.2265512   9.6103414
  57.7698968  37.0880343   9.1980812  57.6424762  35.6139514   8.8775773
  57.1809914  38.2988645  13.2576448  57.8081953  37.9165722  13.8713973
  56.3237833  38.0802847  13.6232141  67.5804023  48.7051620  14.8630184
  68.1243927  49.3181578  14.3685139  66.9990868  49.2631198  15.3797197
  65.8661536  51.8272338   5.9945212  65.7412675  51.0262078   5.4856157
  66.5240627  52.3218531   5.5059181  57.4869704  38.1821071   5.1722352
  56.7656290  38.7957038   5.0329825  58.2762960  38.7178835   5.0938998
  67.9296444  49.6281358   7.6224762  66.9826780  49.5086709   7.5503088
  68.2779217  48.7403856   7.7051023  60.2896017  35.5175497  11.4463003
  60.8130419  35.7637794  12.2089313  60.0708351  36.3495532  11.0266141
  64.9342877  49.4234074   3.8229114  64.7867840  48.4950782   4.0036684
  65.7596371  49.4454165   3.3386189  58.8005122  38.0752141  -0.3190394
  59.1401194  38.6038063  -1.0411786  59.2477242  38.4132548   0.4568173
  68.5376999  50.2462633   4.9093987  69.4623547  50.0405494   4.7718438
  68.3692303  49.9979034   5.8183328  61.4948563  36.4589192   9.1312674
  61.1545383  35.6597005   9.5333354  60.7887569  36.7590903   8.5589507
  62.1465034  33.5438505   7.5839997  62.9691104  33.0698983   7.4618887
  62.3903098  34.3228988   8.0838683  64.9304392  37.2771912  -1.1838769
  65.1468006  38.1596550  -1.4849941  64.4498459  36.8858125  -1.9133127
  59.6703613  40.2357625   5.3931976  59.5248194  40.5497928   6.2856257
  59.1928817  40.8542526   4.8402874  61.5299996  37.2260173   5.4412865
  61.5161565  36.3301266   5.1045163  62.2472424  37.2330837   6.0751151
  63.3826127  37.6597513   7.4865993  63.1243905  38.5814584   7.4850323
  62.8511167  37.2627948   8.1766457  68.3272315  50.7648300   0.2656078
  68.5009193  50.1994723  -0.4870070  68.8201207  51.5649195   0.0835568
  54.1449275  42.7762970   8.3319637  53.6002743  43.5522778   8.4639911
  55.0228625  43.1233774   8.1738758  60.9336892  36.1074553   0.7100435
  61.0552803  35.1791200   0.9091323  60.6438934  36.1213239  -0.2021249
  63.8028082  33.7929464   3.8467155  63.8249779  33.8568797   2.8919135
  64.2196141  32.9533973   4.0407661  74.1811707  43.5284723   1.8846378
  74.6242853  42.7792049   1.4865501  73.3038217  43.5194860   1.5020110
  69.3147488  50.0815065  -2.6347024  70.0098393  50.7021758  -2.4159709
  69.6570638  49.2310416  -2.3594646  54.9315297  41.9032866  11.2249794
  54.1897033  42.0515501  11.8114424  54.6108041  42.1641131  10.3616543
  71.2138911  47.5314770  -1.1059693  71.7390235  47.8702043  -1.8310373
  71.1261264  46.5961786  -1.2896558  62.8758960  51.4448844  11.0230184
  63.1846086  51.1997991  11.8952883  63.6734442  51.6495483  10.5349054
  62.8979572  53.5986754   3.2535560  62.4584562  53.1063132   3.9468417
  63.6487689  53.0559721   3.0127635  55.3771911  49.7898295   3.2560188
  56.2029931  49.4902066   2.8758832  55.0265963  49.0205917   3.7049977
  60.3453444  49.1424763   5.3257862  59.7233453  48.4795468   5.0260090
  61.0158311  49.1685895   4.6431510  53.5780516  47.7084621   4.2149122
  52.7412424  47.2806795   4.0333123  53.5504161  47.9017064   5.1519913
  60.4177971  37.6206551  14.9190368  60.4666127  38.4968674  14.5368138
  60.9600486  37.0783944  14.3462011  70.9032817  48.1647674  14.1991505
  70.1128361  48.1471813  13.6596004  70.6666172  48.7035968  14.9540542
  71.0230692  45.0140140  11.5124234  71.0728697  44.8490148  12.4539756
  70.9144616  44.1467399  11.1222114  59.9066951  47.6928686  -1.1983678
  60.0555071  48.3764151  -1.8517005  60.7133394  47.6733776  -0.6834222
  68.3134455  40.9971068  12.8283540  69.2144317  40.8577533  12.5367538
  68.3882429  41.1625523  13.7681718  62.6477260  38.3737923  11.6736727
  61.7780569  38.6671489  11.4019315  62.8836740  38.9578368  12.3943990
  72.5248889  47.4337082  11.7566255  72.2333697  47.7967063  12.5929716
  71.9121020  46.7204090  11.5779587  73.7244571  44.9989962   4.2768825
  74.5591463  45.4379766   4.4406386  73.8603700  44.5228615   3.4577071
  70.7736077  42.5569697  10.2246313  71.2490199  42.7497343   9.4165164
  69.8501643  42.6128882   9.9789697  57.6619584  43.7193864  -0.1922609
  57.4165626  42.8156194   0.0057602  57.8315498  43.7211014  -1.1343131
  65.3516294  34.5917540   9.1902147  65.8698238  35.3278567   8.8648636
  64.9971427  34.8981533  10.0248906  65.6028888  31.0117823   4.7103044
  65.8830642  30.3441012   5.3363470  66.3879495  31.2046918   4.1977707
  63.4062356  50.1876817  -3.7271930  62.8336323  50.8067004  -4.1801458
  63.9795150  50.7376178  -3.1932008  69.4737746  39.4335457   8.4574619
  70.4255169  39.5333554   8.4786843  69.3041197  38.6413725   8.9672703
  67.4952126  36.5191040   8.6434020  66.9002058  36.7996053   7.9480508
  67.2101822  37.0084941   9.4150761  66.6259616  50.4713967  -2.5963348
  67.5590289  50.4059528  -2.3930472  66.5382829  51.3070234  -3.0548815
  69.2547633  49.7879837  -5.6359400  69.1761264  49.4539701  -4.7423642
  70.0757300  50.2801605  -5.6367928  71.9525824  42.6541576   7.5716918
  71.9202144  41.7157577   7.7576602  72.5626448  42.7325613   6.8382743
  72.1020313  39.4452620   7.6175202  71.5859361  38.6611076   7.4305130
  72.9860261  39.1171336   7.7821721  69.7631039  33.1893635   3.5771014
  69.5655861  32.8808724   4.4614346  70.3730745  33.9155274   3.7068944
  77.7702374  43.7157583   6.7122955  78.5005762  43.4542871   7.2730658
  77.1609319  42.9786305   6.7525023  75.8517671  41.8565446   7.3097406
  75.1250835  41.7221411   6.7013898  75.4364958  42.1642274   8.1154124
  63.6747847  45.5755375  15.0744779  64.5950857  45.7533974  15.2684826
  63.6397430  44.6311421  14.9224479  52.8930012  40.7693969   3.9998054
  52.5732797  39.9159277   3.7072428  52.3463441  40.9842547   4.7556021
  56.6709920  43.4856410   7.7167561  56.8895930  44.4173518   7.7355594
  57.0835694  43.1264385   8.5022364  63.5914138  33.9924495  -0.2956751
  62.7814866  33.6471580   0.0798495  64.2798555  33.6832039   0.2930860
  65.5204686  33.0702542   1.3267546  66.0735725  33.4897996   1.9857569
  65.7574772  32.1438290   1.3690502  61.5437785  39.0589616  17.1070309
  61.4434512  40.0083973  17.0382401  61.3259327  38.7307855  16.2346380
  52.7618272  44.3896881   5.9691176  52.0681744  43.9750833   5.4561130
  53.5091263  44.4317417   5.3724594  68.8983493  35.1803067   0.8346210
  68.3182162  35.8387871   0.4524262  68.6319426  34.3580412   0.4233627
  67.3487060  34.5808125   3.0367530  67.8486838  34.6924660   2.2281849
  67.9922667  34.2769178   3.6768339  61.4069055  42.4886755  15.9235371
  60.9236137  43.2887115  16.1299260  61.4929994  42.4994700  14.9702815
  54.6755015  44.3215134   3.8457190  54.6525703  44.4202822   2.8939074
  54.9855651  45.1680285   4.1674357  57.3342393  46.3791289   7.9603805
  58.2885646  46.3475232   7.8933736  57.1354916  45.9181913   8.7754031
  57.9241775  44.9492405  10.5274603  58.7434664  45.4436484  10.5509440
  58.1978583  44.0324374  10.4992170  67.6808371  37.3403158  -0.1097442
  66.7934226  37.6252808  -0.3277247  68.0962360  37.1796921  -0.9570165
  71.0322907  37.3649679   3.6056897  71.8083297  37.8546131   3.8781514
  70.3071041  37.7907733   4.0628767  73.4695466  38.0777298   4.6630838
  74.0639957  37.8373034   3.9524146  73.5422050  37.3584429   5.2904374
  55.6892622  51.9210909   4.9774003  55.5547090  51.1611310   4.4112001
  55.2724684  52.6451809   4.5102792  66.8251585  47.1047832  -6.0149422
  67.5287435  47.3097835  -5.3991766  66.1014233  47.6724594  -5.7500338
  67.6549395  42.8557694   0.1052848  67.5984596  43.3126245  -0.7339519
  68.2077737  42.0948378  -0.0724309  71.4654201  38.6447426   0.9302968
  71.2091135  38.2444061   1.7611175  70.8407069  39.3591220   0.8053107
  75.7766539  41.3843499   3.4374259  75.2166097  41.4536688   4.2105821
  75.1710042  41.2084483   2.7173755  58.8461748  52.8180226   5.1892445
  58.7294132  53.7625658   5.0871136  58.0254194  52.5153788   5.5778245
  68.7338282  47.5430362  -3.9650962  69.5683886  47.1111560  -4.1473487
  68.5722625  47.3712375  -3.0374067  68.3884174  44.0462475  -2.5994623
  68.3332978  43.8806746  -3.5406178  67.7630230  44.7538508  -2.4432433
  53.1776689  39.2830539  11.2266800  53.8235553  38.7729493  11.7154025
  52.9693840  40.0199221  11.8010225  65.7030081  46.3511387  16.7258940
  66.5721241  46.5252039  16.3645575  65.2236833  47.1705804  16.6034670
  59.8716262  53.4708488   8.4048374  60.7743508  53.5032098   8.7214869
  59.6453632  52.5408939   8.4194710  61.6269864  52.2239474   5.0658452
  60.6765495  52.2241336   4.9522825  61.9302350  51.4772209   4.5494487
  65.5132419  30.1413361   1.2336633  64.7464815  29.5871847   1.3793315
  65.9243124  30.2135229   2.0950784  57.5174180  36.4298156  15.3241814
  58.3805642  36.0734961  15.5345138  56.9439591  36.0912051  16.0117218
  77.3622557  58.0600013   6.1304215  78.0000967  57.9406760   5.4267555
  77.2443400  59.0080857   6.1892167  74.1712263  58.0127441   6.0665740
  73.8330775  57.8968506   5.1786274  75.0402032  57.6118606   6.0466746
  70.0299079  59.8662917   2.0562630  69.4663944  59.7752854   1.2878918
  69.9151474  59.0462822   2.5365123  74.6532046  59.1662293  12.0251945
  74.6420687  58.7715091  11.1532449  74.8152686  58.4328365  12.6185717
  67.5763511  61.3614109   4.8946851  68.3684803  61.0204934   4.4793150
  67.8160161  61.4709084   5.8149004  69.5354265  60.6223022  -2.2335770
  70.3085141  60.0752009  -2.3722894  69.8879664  61.4867271  -2.0221309
  71.3739308  61.9499404  10.9731129  71.0829174  62.8545035  10.8577795
  72.0096292  61.9915932  11.6875199  72.2995514  59.3276253   7.5632489
  72.8959087  59.1032275   6.8489452  72.3570486  58.5860998   8.1657937
  71.8720543  56.7815688  -4.6017320  72.1246063  56.2597210  -5.3633857
  70.9345102  56.6181834  -4.4990637  76.9163826  55.7851467   3.2057423
  77.7026915  55.3670890   2.8547840  77.1802530  56.6897559   3.3739071
  77.0873903  61.2224317  -2.0953920  76.4519736  61.2958943  -1.3833016
  76.7571309  61.8117916  -2.7734841  82.3172253  55.7226700   4.1090401
  83.0497425  55.1525917   4.3428231  81.5611608  55.3348300   4.5496907
  71.5916832  58.6843794  -2.3992945  71.4753090  58.0088698  -1.7311861
  71.7019091  58.1976168  -3.2160792  73.9348372  58.1453941   1.3053744
  73.5706580  57.6184562   2.0166665  74.7915488  57.7552410   1.1320229
  79.8397673  49.4348274   8.5685010  79.5080998  50.3043685   8.3446225
  79.2443287  49.1184558   9.2479040  73.5753859  53.1743841  -3.6984908
  73.7428262  54.0424077  -3.3314437  73.3851029  53.3371123  -4.6223618
  76.3329193  61.6360820   7.9680923  76.0329916  62.5385859   7.8596730
  75.9880252  61.3693003   8.8202076  69.7841674  58.0874617   4.0017627
  68.8592171  57.9550831   4.2095319  70.0326087  58.8668836   4.4987570
  79.7326336  54.1543360   5.6478360  78.8243214  54.0858769   5.3537121
  79.6813932  54.6315305   6.4760186  73.5543080  55.6301499  -2.7138241
  73.4342706  56.0758549  -1.8752761  72.8595669  55.9786816  -3.2724703
  67.1450485  57.7307890   4.8361416  67.2742866  57.9842369   5.7500828
  66.4647936  58.3235598   4.5166071  71.3149972  68.4005140   0.9351890
  71.2374002  69.3512965   1.0140371  70.7111616  68.0551013   1.5926817
  73.8067202  55.5733006  13.5913257  73.0300536  56.1326926  13.5816122
  74.4457765  56.0589789  14.1128127  81.5987983  52.3559799   7.4256234
  80.9562363  52.6492332   6.7796029  81.0942911  52.2412719   8.2309431
  79.2528146  56.1022972  -1.8857907  80.1646003  56.3350358  -2.0610209
  78.7437794  56.6860016  -2.4482828  72.0613575  58.3818459  13.1531224
  72.8028259  58.9203503  12.8766048  71.3550560  59.0084748  13.3102776
  77.5368914  60.5247600  11.7503386  77.9452270  60.0830010  11.0058018
  76.8146176  59.9500227  12.0037579  73.8899984  55.4620206   9.1236943
  74.7361179  55.8859620   9.2671592  73.8298622  54.8053831   9.8175506
  77.8597729  61.0848790   5.5055675  77.2306591  61.2494504   4.8031743
  77.4723391  61.4990400   6.2766639  81.7386961  62.0203228   2.8600038
  81.0537999  62.4002129   2.3097072  81.8230810  62.6298555   3.5931986
  77.0399430  53.1224575  10.7818116  76.7960361  53.8766635  10.2452392
  77.3159360  53.5009922  11.6165363  78.9937892  59.6663187   9.4595382
  79.2054788  60.3094947   8.7829763  78.9467641  58.8325504   8.9917312
  76.5964121  52.2781008   6.3631954  75.7348600  52.5762261   6.6548692
  76.6226556  52.4951407   5.4312987  73.4125691  60.8223198   2.7705760
  73.8764036  61.1010901   1.9810382  73.1482489  59.9206643   2.5878850
  70.3049772  60.3694680   5.7085523  70.8751129  60.7981948   5.0703008
  70.8957884  60.0877264   6.4069709  72.3494577  56.9446351  -0.4204675
  73.0518620  57.3967394   0.0469251  72.0175205  56.3030169   0.2075218
  70.7974938  55.5358107  13.9546534  70.1673599  56.2174388  14.1881931
  70.6911026  55.4241189  13.0099673  66.0919911  55.2029903   4.8812459
  65.3018965  55.4587432   4.4052569  66.5831158  56.0178241   4.9864499
  80.1083720  62.5435142   7.6317739  80.9301164  62.1415330   7.3500421
  80.1046123  62.4403377   8.5833855  68.0434656  55.5674483   1.8395935
  67.2465819  55.6793177   2.3579431  67.8160248  55.9061135   0.9736826
  73.8740324  62.0919186   9.7878450  73.9384756  62.5539593  10.6236622
  73.1651248  61.4616551   9.9160760  64.3757614  55.4560394   7.3127449
  64.6265652  56.3407404   7.5785025  64.9117162  55.2764995   6.5402541
  88.1989713  58.8873891   3.9802711  87.4453422  58.3181289   3.8246715
  88.3337255  58.8536555   4.9273345  73.5888341  63.7587293  -0.3442570
  73.4534016  64.6038829   0.0842278  74.1298154  63.9606571  -1.1076636
  70.0755681  49.8378873  16.3171785  69.6822627  49.2845072  16.9919430
  70.8921821  50.1489452  16.7078303  67.0417739  61.2762731   0.2285355
  67.5542259  62.0705982   0.3790920  67.6940452  60.5789022   0.1618957
  68.8512623  64.3928488   2.3108108  69.0279252  65.3146452   2.1229092
  69.6469457  64.0786907   2.7402488  72.9923642  51.2536752  13.9092042
  73.7333355  51.8543905  13.8296504  73.2241565  50.5114390  13.3510085
  68.1364980  56.4393119  12.1870272  68.0218495  55.5378377  12.4877371
  67.2809498  56.6856816  11.8355088  75.2156818  64.3810860  13.7857772
  74.7720672  63.5947238  13.4678677  75.8774031  64.5690010  13.1201663
  69.9743939  65.9106661   8.3118451  70.5251364  65.7823725   7.5395445
  69.1355415  66.2101550   7.9613344  77.3138056  64.6613660  11.8139174
  77.2956531  65.4822541  11.3219443  78.2357976  64.5367735  12.0389315
  73.7711110  62.1757789  12.6562682  74.3039447  61.4146077  12.4261990
  73.2425191  61.8831441  13.3986836  76.9380805  47.2817855   8.1856324
  76.5945074  48.1719497   8.1095434  77.3059768  47.0919513   7.3225909
  65.0066656  59.6051386   1.0044926  65.8441878  60.0148394   0.7878633
  65.1844923  58.6650828   0.9745120  76.9031088  57.2726466  -3.3071241
  76.3877711  58.0431071  -3.0682854  76.6308396  56.5991602  -2.6838180
  74.4878199  52.1176167   1.7513997  73.6319795  51.7283017   1.5719636
  74.9005150  52.1968128   0.8913783  76.0177345  49.6522510   6.1505557
  75.5142141  49.6152645   5.3373362  76.3107952  50.5615253   6.2102214
  72.2620231  49.7361240   5.1571739  73.1273228  49.5404049   4.7977628
  72.3297740  49.5071592   6.0841095  76.6917391  55.1453558  -1.4811460
  76.3867526  55.4599707  -0.6301317  77.6447833  55.2234978  -1.4384127
  75.1363823  61.3043782   0.1681494  74.6085184  60.5696541  -0.1445269
  74.6351325  62.0818458  -0.0778538  80.1156669  59.4992802   5.2848540
  79.4580343  60.1892064   5.3728669  80.9197068  59.8889234   5.6282527
  69.8682550  51.9663448   2.5288105  70.4426302  51.7438629   1.7961298
  70.4553533  52.0352142   3.2816707  78.9262127  57.8537175   3.3352482
  79.4394009  58.4867167   3.8374192  79.5763351  57.2538370   2.9695842
  70.1952137  53.9967909  -3.4516009  69.3589450  54.3342595  -3.1306735
  70.0556907  53.8616889  -4.3888872  72.1705218  48.8404697   1.2563175
  71.5169630  48.5253714   0.6319790  72.1285692  48.2180437   1.9822998
  75.4042958  55.3286630   5.5810822  74.4865520  55.5501577   5.4232511
  75.8203102  55.4032941   4.7222530  76.1878006  56.7278046   0.7113503
  76.9349825  57.2399443   0.4020625  76.4569596  56.4062099   1.5717896
  74.4604656  59.2236587  -2.3059543  73.5515876  58.9395620  -2.2087073
  74.4899740  59.6435665  -3.1656236  79.6923924  62.8343176   1.4631625
  79.2386251  61.9934086   1.5196815  79.0617890  63.4704575   1.8006405
  78.6356843  53.7635162   2.6932292  77.8979600  53.2512548   3.0242535
  78.8883617  53.3235544   1.8815569  78.1356863  64.6719673   2.3981443
  78.4279837  65.2324730   1.6793808  78.6455484  64.9648234   3.1534602
  78.7368471  46.5411414   3.2874061  79.0427347  45.6808778   2.9999976
  79.4621075  47.1329034   3.0873055  65.0292827  56.9442101   1.6755659
  64.8317226  56.3511462   0.9506726  64.4739491  56.6394311   2.3931598
  73.0089550  56.8365207   3.7950252  73.0638160  55.8839044   3.7192729
  72.1980752  56.9924646   4.2791551  70.9481910  55.4542267   1.5540631
  70.1349776  55.7536438   1.9605823  71.4440904  55.0597956   2.2715113
  73.0990488  65.4500024   3.4874896  73.0566667  65.6760870   2.5583428
  74.0153187  65.2163399   3.6360697  76.5456122  55.9184092  10.3855525
  76.9005510  56.1455565  11.2449991  77.1928253  56.2502468   9.7632780
  82.2753859  59.0402527   1.0904854  82.1371757  59.2304123   0.1626043
  81.9190078  59.8021910   1.5472905  70.4395985  53.0260623   7.1701866
  71.0795364  52.8849382   6.4724830  69.6073516  52.7395136   6.7940468
  82.3023238  61.1079054   6.1016126  82.7359745  61.0154344   6.9499180
  83.0154819  61.0836555   5.4636142  71.2156289  62.3263053   3.2836859
  72.0096887  61.8313373   3.0819434  70.5047981  61.7980916   2.9204564
  76.0351133  64.7081149   7.6349226  76.0888156  65.2772085   8.4026942
  75.1665915  64.8783034   7.2703263  67.5239052  56.4706135  -0.6403389
  66.5936640  56.4090590  -0.4233427  67.6196524  55.9482088  -1.4366747
  67.4424601  52.9960948   1.9474853  67.7031419  53.9106281   1.8384013
  68.2641774  52.5285390   2.0971466  68.9149527  54.4098705   9.1173678
  69.5872580  54.2016067   8.4686326  68.0879313  54.2120791   8.6778910
  83.1638788  61.1502755   8.6349011  83.3574678  62.0548566   8.8808286
  83.0639406  60.6910174   9.4687596  74.8175099  51.0360646  11.1339338
  74.1703014  51.7350595  11.0403815  75.5876114  51.4696790  11.5015587
  78.2253897  61.3009498  14.2089892  78.0739403  61.0720050  13.2919975
  78.2158576  62.2580099  14.2221237  74.9939233  58.8741411   9.1936158
  75.9231293  59.0252570   9.0205125  74.5730263  58.9625431   8.3384805
  73.7927565  62.8992075   6.9634696  73.6538651  62.5310859   7.8360634
  73.0042161  63.4139714   6.7918654  75.3432780  62.2773678   4.3523534
  75.0082613  62.2374448   5.2481183  74.8436726  61.6118394   3.8793944
  69.3177024  57.6841308   9.8776115  69.1796822  56.9521547  10.4787654
  70.2281947  57.5950208   9.5960302  71.9459325  57.3961267   9.3659794
  72.6558943  56.7554459   9.3246413  71.9028633  57.6474162  10.2885975
  79.9346103  64.3328620  12.2866374  79.8758650  63.6487841  11.6196957
  80.3365622  65.0747610  11.8347000  70.6588259  54.3826485  11.1855434
  70.1225616  53.9317223  11.8377030  70.0704967  54.5172394  10.4425898
  68.9536802  71.1490534   5.0800092  69.1933400  71.7809058   5.7579111
  68.1105999  70.7978574   5.3665452  70.0690518  53.8415136  -6.2518103
  69.1919984  53.7203937  -6.6155856  70.5448271  53.0501215  -6.5039214
  79.9363511  62.2968204  10.5180353  79.0490289  61.9594126  10.6406752
  80.5062062  61.5651236  10.7549119  61.5892658  58.6292296   3.8423405
  62.2763698  58.3154026   3.2544420  61.4340786  59.5333661   3.5690656
  66.3927380  53.5182493   8.2708428  66.3085569  52.9108162   7.5358838
  65.5710086  54.0091511   8.2717925  73.4664664  66.9569657   7.4841596
  73.3934836  67.7624628   7.9960901  73.0242057  67.1561623   6.6589618
  73.2554444  66.1941427   0.9944418  72.4721966  66.7363107   1.0882642
  73.9547189  66.7115406   1.3938659  76.5651094  52.0036056   3.6378623
  77.0619793  51.2506019   3.3179694  75.7938075  52.0400373   3.0721833
  84.4180851  57.7076422   5.2796915  84.4070727  58.5901137   4.9090848
  83.5498231  57.3547973   5.0851452  75.9263348  66.8556491   9.6399755
  76.6391320  67.4903956   9.5675657  75.4353376  66.9520357   8.8239757
  77.6480874  60.7607743   1.2117047  76.7137153  60.8809206   1.0421751
  77.8257543  59.8580210   0.9477057  73.1486063  54.1453439   3.3650308
  72.7783850  53.5924480   4.0531214  73.6445155  53.5411573   2.8125308
  81.0353426  56.6025063   1.7467081  81.5013878  57.4353054   1.6727384
  81.4860926  56.1370044   2.4512339  70.9775261  64.6050934  10.4605326
  71.6784721  65.2387417  10.6134720  70.5070376  64.9465666   9.7000965
  79.1029657  62.9468884  -1.2546767  79.3789501  62.8325479  -0.3452893
  78.2334156  62.5486369  -1.2934594  79.0070089  48.9705650   5.7857982
  78.0933168  49.2009877   5.9540189  79.4363190  49.0544094   6.6372015
  78.7776547  57.1595542   8.2857876  78.1247997  57.4071449   7.6310329
  79.1556927  56.3459680   7.9520354  75.7383721  67.1955235   2.3886047
  75.9206115  66.3776891   2.8513799  76.5616707  67.4122927   1.9510937
  76.0725886  66.1223420  -0.3498905  76.6013653  65.6115875  -0.9628743
  76.3354106  65.8065950   0.5146628  74.8264120  57.9015353  14.7723913
  74.1504757  57.8009482  15.4426289  75.6491754  57.7454566  15.2359911
  66.5742979  64.1387289   7.3936429  67.1596416  63.3930977   7.5264333
  66.3767818  64.4491246   8.2773092  69.4281634  67.1738537   2.4098871
  68.7592010  67.6584664   1.9262911  69.2894504  67.4207757   3.3242250
  61.1660634  56.7092889   6.1140872  61.2044733  56.1756480   6.9077990
  60.6600927  56.1828095   5.4951849  73.5686903  69.2082280   9.0081529
  74.1205211  69.3713902   9.7730615  73.9093096  69.7986718   8.3361554
  68.5451396  51.5557430   9.6103414  68.6092723  52.4172261   9.1980812
  68.4818516  50.9431432   8.8775773  68.0203669  53.6280563  13.2576448
  68.6475708  53.2457640  13.8713973  67.1631588  53.4094764  13.6232141
  78.4197777  64.0343538  14.8630184  78.9637681  64.6473496  14.3685139
  77.8384622  64.5923116  15.3797197  64.7969211  55.4356992  -0.8105197
  65.0922653  54.5267670  -0.8638143  63.8957247  55.4144731  -1.1324195
  76.7055290  67.1564256   5.9945212  76.5806430  66.3553996   5.4856157
  77.3634381  67.6510449   5.5059181  68.3263458  53.5112988   5.1722352
  67.6050044  54.1248956   5.0329825  69.1156714  54.0470753   5.0938998
  78.7690199  64.9573276   7.6224762  77.8220534  64.8378627   7.5503088
  79.1172972  64.0695774   7.7051023  71.1289772  50.8467415  11.4463003
  71.6524174  51.0929711  12.2089313  70.9102105  51.6787450  11.0266141
  66.5257053  53.1171089  -0.6865872  66.1969759  52.2368468  -0.8690766
  66.8796424  53.0618758   0.2010518  75.7736632  64.7525992   3.8229114
  75.6261594  63.8242699   4.0036684  76.5990125  64.7746083   3.3386189
  69.6398876  53.4044059  -0.3190394  69.9794949  53.9329980  -1.0411786
  70.0870997  53.7424465   0.4568173  79.3770754  65.5754551   4.9093987
  80.3017301  65.3697412   4.7718438  79.2086057  65.3270952   5.8183328
  72.3342317  51.7881110   9.1312674  71.9939137  50.9888923   9.5333354
  71.6281323  52.0882821   8.5589507  72.9858789  48.8730422   7.5839997
  73.8084858  48.3990900   7.4618887  73.2296852  49.6520906   8.0838683
  71.6267023  51.9018681  -2.1197101  72.3475386  52.2799933  -2.6233384
  71.0032327  52.6207557  -2.0162123  75.7698146  52.6063830  -1.1838769
  75.9861761  53.4888468  -1.4849941  75.2892213  52.2150043  -1.9133127
  70.5097368  55.5649543   5.3931976  70.3641948  55.8789846   6.2856257
  70.0322571  56.1834443   4.8402874  72.3693750  52.5552091   5.4412865
  72.3555319  51.6593184   5.1045163  73.0866179  52.5622755   6.0751151
  74.2219881  52.9889431   7.4865993  73.9637659  53.9106502   7.4850323
  73.6904922  52.5919866   8.1766457  64.9843030  58.1054887   8.3319637
  64.4396498  58.8814695   8.4639911  65.8622380  58.4525692   8.1738758
  71.7730646  51.4366471   0.7100435  71.8946558  50.5083117   0.9091323
  71.4832689  51.4505157  -0.2021249  74.6421837  49.1221382   3.8467155
  74.6643534  49.1860715   2.8919135  75.0589896  48.2825890   4.0407661
  85.0205461  58.8576641   1.8846378  85.4636607  58.1083966   1.4865501
  84.1431971  58.8486777   1.5020110  65.7709052  57.2324784  11.2249794
  65.0290788  57.3807419  11.8114424  65.4501796  57.4933049  10.3616543
  73.7152714  66.7740762  11.0230184  74.0239841  66.5289909  11.8952883
  74.5128196  66.9787400  10.5349054  73.7373326  68.9278671   3.2535560
  73.2978317  68.4355050   3.9468417  74.4881443  68.3851639   3.0127635
  66.2165665  65.1190212   3.2560188  67.0423685  64.8193984   2.8758832
  65.8659717  64.3497835   3.7049977  71.1847198  64.4716680   5.3257862
  70.5627208  63.8087385   5.0260090  71.8552065  64.4977812   4.6431510
  64.4174270  63.0376539   4.2149122  63.5806179  62.6098713   4.0333123
  64.3897916  63.2308982   5.1519913  71.2571726  52.9498468  14.9190368
  71.3059881  53.8260591  14.5368138  71.7994240  52.4075862  14.3462011
  81.7426572  63.4939592  14.1991505  80.9522115  63.4763731  13.6596004
  81.5059926  64.0327885  14.9540542  81.8624447  60.3432058  11.5124234
  81.9122452  60.1782066  12.4539756  81.7538370  59.4759317  11.1222114
  70.7460705  63.0220604  -1.1983678  70.8948826  63.7056068  -1.8517005
  71.5527149  63.0025694  -0.6834222  79.1528209  56.3262986  12.8283540
  80.0538072  56.1869451  12.5367538  79.2276184  56.4917441  13.7681718
  73.4871014  53.7029841  11.6736727  72.6174324  53.9963407  11.4019315
  73.7230495  54.2870286  12.3943990  83.3642644  62.7629000  11.7566255
  83.0727452  63.1258980  12.5929716  82.7514775  62.0496008  11.5779587
  84.5638326  60.3281879   4.2768825  85.3985217  60.7671683   4.4406386
  84.6997455  59.8520533   3.4577071  81.6129832  57.8861614  10.2246313
  82.0883953  58.0789261   9.4165164  80.6895397  57.9420800   9.9789697
  68.5013338  59.0485781  -0.1922609  68.2559380  58.1448111   0.0057602
  68.6709253  59.0502932  -1.1343131  76.1910048  49.9209458   9.1902147
  76.7091992  50.6570485   8.8648636  75.8365181  50.2273451  10.0248906
  67.7708986  54.7814139  -2.6936447  67.0778231  54.8558494  -3.3496411
  67.5260738  54.0174483  -2.1714930  76.4422642  46.3409740   4.7103044
  76.7224396  45.6732929   5.3363470  77.2273249  46.5338836   4.1977707
  80.3131501  54.7627374   8.4574619  81.2648924  54.8625472   8.4786843
  80.1434951  53.9705643   8.9672703  78.3345880  51.8482958   8.6434020
  77.7395812  52.1287970   7.9480508  78.0495577  52.3376858   9.4150761
  82.7919579  57.9833494   7.5716918  82.7595899  57.0449495   7.7576602
  83.4020202  58.0617531   6.8382743  74.6302909  56.8529547  -6.3855878
  75.5762014  56.7235755  -6.3167460  74.2517154  56.1144209  -5.9086449
  82.9414067  54.7744537   7.6175202  82.4253116  53.9902994   7.4305130
  83.8254016  54.4463254   7.7821721  80.6024794  48.5185553   3.5771014
  80.4049615  48.2100641   4.4614346  81.2124500  49.2447192   3.7068944
  88.6096128  59.0449501   6.7122955  89.3399517  58.7834789   7.2730658
  88.0003074  58.3078223   6.7525023  86.6911426  57.1857363   7.3097406
  85.9644589  57.0513328   6.7013898  86.2758712  57.4934192   8.1154124
  74.5141602  60.9047293  15.0744779  75.4344611  61.0825892  15.2684826
  74.4791185  59.9603339  14.9224479  72.8145827  54.7779523  -6.4500992
  71.9077282  54.4812636  -6.3738279  73.0921808  54.4809341  -7.3166706
  63.7323767  56.0985887   3.9998054  63.4126551  55.2451195   3.7072428
  63.1857195  56.3134465   4.7556021  67.5103674  58.8148328   7.7167561
  67.7289684  59.7465436   7.7355594  67.9229448  58.4556302   8.5022364
  74.4307892  49.3216413  -0.2956751  73.6208621  48.9763498   0.0798495
  75.1192309  49.0123957   0.2930860  76.3598441  48.3994460   1.3267546
  76.9129479  48.8189913   1.9857569  76.5968527  47.4730208   1.3690502
  72.3831540  54.3881534  17.1070309  72.2828267  55.3375891  17.0382401
  72.1653082  54.0599772  16.2346380  71.5844611  51.6366459  -6.3089013
  72.4463775  51.9621357  -6.0493196  71.7694955  50.8497955  -6.8215947
  63.6012027  59.7188798   5.9691176  62.9075498  59.3042751   5.4561130
  64.3485018  59.7609335   5.3724594  79.7377248  50.5094985   0.8346210
  79.1575917  51.1679789   0.4524262  79.4713180  49.6872330   0.4233627
  78.1880814  49.9100043   3.0367530  78.6880592  50.0216577   2.2281849
  78.8316422  49.6061096   3.6768339  72.2462810  57.8178672  15.9235371
  71.7629892  58.6179033  16.1299260  72.3323749  57.8286617  14.9702815
  65.5148769  59.6507052   3.8457190  65.4919458  59.7494739   2.8939074
  65.8249406  60.4972203   4.1674357  68.1736147  61.7083207   7.9603805
  69.1279401  61.6767149   7.8933736  67.9748671  61.2473831   8.7754031
  68.7635529  60.2784323  10.5274603  69.5828418  60.7728402  10.5509440
  69.0372337  59.3616291  10.4992170  78.5202126  52.6695075  -0.1097442
  77.6327981  52.9544726  -0.3277247  78.9356115  52.5088839  -0.9570165
  81.8716662  52.6941596   3.6056897  82.6477052  53.1838049   3.8781514
  81.1464796  53.1199651   4.0628767  84.3089220  53.4069216   4.6630838
  84.9033711  53.1664952   3.9524146  84.3815804  52.6876346   5.2904374
  66.5286376  67.2502827   4.9774003  66.3940844  66.4903227   4.4112001
  66.1118438  67.9743726   4.5102792  78.4943149  58.1849611   0.1052848
  78.4378351  58.6418163  -0.7339519  79.0471492  57.4240296  -0.0724309
  82.3047955  53.9739343   0.9302968  82.0484890  53.5735979   1.7611175
  81.6800823  54.6883137   0.8053107  86.6160293  56.7135417   3.4374259
  86.0559851  56.7828606   4.2105821  86.0103797  56.5376401   2.7173755
  69.6855502  68.1472144   5.1892445  69.5687886  69.0917576   5.0871136
  68.8647948  67.8445705   5.5778245  79.2277929  59.3754393  -2.5994623
  79.1726733  59.2098664  -3.5406178  78.6023984  60.0830426  -2.4432433
  64.0170444  54.6122457  11.2266800  64.6629307  54.1021411  11.7154025
  63.8087595  55.3491139  11.8010225  76.5423836  61.6803305  16.7258940
  77.4114996  61.8543957  16.3645575  76.0630587  62.4997721  16.6034670
  72.5374054  48.8762502  -3.0209304  72.5252724  49.8204342  -2.8641033
  73.4297476  48.6932647  -3.3149843  70.7110016  68.8000406   8.4048374
  71.6137263  68.8324016   8.7214869  70.4847386  67.8700856   8.4194710
  72.4663618  67.5531392   5.0658452  71.5159249  67.5533254   4.9522825
  72.7696104  66.8064127   4.5494487  76.3526174  45.4705278   1.2336633
  75.5858569  44.9163765   1.3793315  76.7636879  45.5427147   2.0950784
  68.3567935  51.7590074  15.3241814  69.2199396  51.4026879  15.5345138
  67.7833345  51.4203969  16.0117218  85.4925801  74.4954210  12.0251945
  85.4814442  74.1007009  11.1532449  85.6546440  73.7620283  12.6185717
  82.2133062  77.2791322  10.9731129  81.9222928  78.1836953  10.8577795
  82.8490046  77.3207850  11.6875199  90.6791428  64.7640192   8.5685010
  90.3474752  65.6335603   8.3446225  90.0837041  64.4476476   9.2479040
  77.9844240  73.0599808   4.8361416  78.1136621  73.3134287   5.7500828
  77.3041691  73.6527516   4.5166071  84.6460957  70.9024923  13.5913257
  83.8694291  71.4618844  13.5816122  85.2851520  71.3881706  14.1128127
  92.4381737  67.6851716   7.4256234  91.7956118  67.9784249   6.7796029
  91.9336666  67.5704637   8.2309431  82.9007329  73.7110377  13.1531224
  83.6422013  74.2495421  12.8766048  82.1944314  74.3376665  13.3102776
  88.3762669  75.8539517  11.7503386  88.7846025  75.4121928  11.0058018
  87.6539930  75.2792145  12.0037579  84.7293739  70.7912124   9.1236943
  85.5754934  71.2151538   9.2671592  84.6692376  70.1345748   9.8175506
  87.8793184  68.4516492  10.7818116  87.6354116  69.2058553  10.2452392
  88.1553115  68.8301840  11.6165363  87.4357876  67.6072925   6.3631954
  86.5742355  67.9054179   6.6548692  87.4620310  67.8243324   5.4312987
  81.6368693  70.8650025  13.9546534  81.0067353  71.5466306  14.1881931
  81.5304781  70.7533107  13.0099673  76.9313665  70.5321821   4.8812459
  76.1412719  70.7879349   4.4052569  77.4224913  71.3470159   4.9864499
  84.7134078  77.4211103   9.7878450  84.7778511  77.8831511  10.6236622
  84.0045002  76.7908468   9.9160760  75.2151368  70.7852311   7.3127449
  75.4659407  71.6699321   7.5785025  75.7510917  70.6056913   6.5402541
  80.9149435  65.1670791  16.3171785  80.5216381  64.6136989  16.9919430
  81.7315576  65.4781369  16.7078303  83.8317396  66.5828670  13.9092042
  84.5727110  67.1835823  13.8296504  84.0635319  65.8406308  13.3510085
  78.9758734  71.7685037  12.1870272  78.8612250  70.8670294  12.4877371
  78.1203252  72.0148734  11.8355088  86.0550572  79.7102777  13.7857772
  85.6114426  78.9239156  13.4678677  86.7167786  79.8981928  13.1201663
  84.6104864  77.5049707  12.6562682  85.1433201  76.7437995  12.4261990
  84.0818946  77.2123359  13.3986836  87.7774559  62.6109773   8.1856324
  87.4338829  63.5011414   8.1095434  88.1453522  62.4211430   7.3225909
  86.8571100  64.9814428   6.1505557  86.3535895  64.9444563   5.3373362
  87.1501707  65.8907171   6.2102214  83.1013986  65.0653158   5.1571739
  83.9666982  64.8695966   4.7977628  83.1691495  64.8363509   6.0841095
  80.7076305  67.2955366   2.5288105  81.2820057  67.0730547   1.7961298
  81.2947287  67.3644060   3.2816707  83.0098972  64.1696614   1.2563175
  82.3563385  63.8545632   0.6319790  82.9679447  63.5472355   1.9822998
  89.5762225  61.8703332   3.2874061  89.8821102  61.0100695   2.9999976
  90.3014830  62.4620952   3.0873055  87.3849876  71.2476009  10.3855525
  87.7399264  71.4747482  11.2449991  88.0322008  71.5794386   9.7632780
  81.2789739  68.3552540   7.1701866  81.9189119  68.2141299   6.4724830
  80.4467270  68.0687054   6.7940468  78.2818356  68.3252865   1.9474853
  78.5425173  69.2398199   1.8384013  79.1035528  67.8577308   2.0971466
  79.7543281  69.7390622   9.1173678  80.4266335  69.5307985   8.4686326
  78.9273068  69.5412708   8.6778910  85.6568853  66.3652563  11.1339338
  85.0096768  67.0642513  11.0403815  86.4269869  66.7988707  11.5015587
  89.0647651  76.6301416  14.2089892  88.9133158  76.4011967  13.2919975
  89.0552331  77.5872017  14.2221237  85.8332988  74.2033328   9.1936158
  86.7625048  74.3544488   9.0205125  85.4124018  74.2917349   8.3384805
  80.1570779  73.0133225   9.8776115  80.0190576  72.2813464  10.4787654
  81.0675702  72.9242126   9.5960302  82.7853079  72.7253185   9.3659794
  83.4952698  72.0846377   9.3246413  82.7422387  72.9766080  10.2885975
  81.4982013  69.7118403  11.1855434  80.9619370  69.2609141  11.8377030
  80.9098722  69.8464311  10.4425898  72.4286412  73.9584214   3.8423405
  73.1157452  73.6445944   3.2544420  72.2734541  74.8625578   3.5690656
  77.2321134  68.8474410   8.2708428  77.1479323  68.2400080   7.5358838
  76.4103841  69.3383429   8.2717925  81.8169016  79.9342852  10.4605326
  82.5178475  80.5679335  10.6134720  81.3464131  80.2757583   9.7000965
  89.8463843  64.2997567   5.7857982  88.9326923  64.5301794   5.9540189
  90.2756945  64.3836011   6.6372015  85.6657875  73.2307270  14.7723913
  84.9898512  73.1301400  15.4426289  86.4885508  73.0746484  15.2359911
  77.4136734  79.4679207   7.3936429  77.9990170  78.7222895   7.5264333
  77.2161572  79.7783164   8.2773092  72.0054388  72.0384807   6.1140872
  72.0438488  71.5048398   6.9077990  71.4994681  71.5120013   5.4951849
  79.3845151  66.8849348   9.6103414  79.4486477  67.7464179   9.1980812
  79.3212271  66.2723349   8.8775773  78.8597423  68.9572480  13.2576448
  79.4869462  68.5749558  13.8713973  78.0025342  68.7386682  13.6232141
  89.2591532  79.3635455  14.8630184  89.8031436  79.9765414  14.3685139
  88.6778377  79.9215034  15.3797197  79.1657213  68.8404906   5.1722352
  78.4443799  69.4540874   5.0329825  79.9550469  69.3762671   5.0938998
  81.9683526  66.1759332  11.4463003  82.4917928  66.4221629  12.2089313
  81.7495860  67.0079367  11.0266141  83.1736072  67.1173027   9.1312674
  82.8332892  66.3180841   9.5333354  82.4675078  67.4174738   8.5589507
  83.8252543  64.2022340   7.5839997  84.6478613  63.7282818   7.4618887
  84.0690607  64.9812824   8.0838683  81.3491122  70.8941461   5.3931976
  81.2035703  71.2081764   6.2856257  80.8716326  71.5126361   4.8402874
  83.2087505  67.8844009   5.4412865  83.1949074  66.9885102   5.1045163
  83.9259933  67.8914672   6.0751151  85.0613636  68.3181349   7.4865993
  84.8031414  69.2398419   7.4850323  84.5298676  67.9211783   8.1766457
  75.8236784  73.4346805   8.3319637  75.2790252  74.2106613   8.4639911
  76.7016134  73.7817609   8.1738758  85.4815591  64.4513299   3.8467155
  85.5037288  64.5152632   2.8919135  85.8983650  63.6117808   4.0407661
  76.6102806  72.5616701  11.2249794  75.8684542  72.7099337  11.8114424
  76.2895550  72.8224967  10.3616543  82.0965480  68.2790386  14.9190368
  82.1453636  69.1552509  14.5368138  82.6387995  67.7367779  14.3462011
  92.5820326  78.8231509  14.1991505  91.7915870  78.8055648  13.6596004
  92.3453681  79.3619803  14.9540542  92.7018201  75.6723976  11.5124234
  92.7516206  75.5073983  12.4539756  92.5932125  74.8051235  11.1222114
  89.9921964  71.6554904  12.8283540  90.8931826  71.5161369  12.5367538
  90.0669938  71.8209359  13.7681718  84.3264769  69.0321759  11.6736727
  83.4568078  69.3255325  11.4019315  84.5624249  69.6162204  12.3943990
  87.0303803  65.2501376   9.1902147  87.5485747  65.9862402   8.8648636
  86.6758936  65.5565369  10.0248906  87.2816397  61.6701658   4.7103044
  87.5618151  61.0024847   5.3363470  88.0667004  61.8630754   4.1977707
  91.1525255  70.0919292   8.4574619  92.1042678  70.1917390   8.4786843
  90.9828706  69.2997561   8.9672703  89.1739635  67.1774875   8.6434020
  88.5789567  67.4579888   7.9480508  88.8889331  67.6668776   9.4150761
  85.3535356  76.2339211  15.0744779  86.2738366  76.4117810  15.2684826
  85.3184939  75.2895256  14.9224479  74.5717521  71.4277804   3.9998054
  74.2520306  70.5743113   3.7072428  74.0250950  71.6426383   4.7556021
  78.3497429  74.1440245   7.7167561  78.5683439  75.0757353   7.7355594
  78.7623203  73.7848220   8.5022364  83.2225294  69.7173451  17.1070309
  83.1222021  70.6667808  17.0382401  83.0046836  69.3891690  16.2346380
  74.4405781  75.0480716   5.9691176  73.7469253  74.6334669   5.4561130
  75.1878772  75.0901252   5.3724594  83.0856564  73.1470590  15.9235371
  82.6023646  73.9470950  16.1299260  83.1717503  73.1578535  14.9702815
  79.0129902  77.0375125   7.9603805  79.9673155  77.0059067   7.8933736
  78.8142425  76.5765749   8.7754031  79.6029284  75.6076241  10.5274603
  80.4222173  76.1020320  10.5509440  79.8766092  74.6908209  10.4992170
  74.8564198  69.9414375  11.2266800  75.5023062  69.4313329  11.7154025
  74.6481349  70.6783056  11.8010225  87.3817590  77.0095222  16.7258940
  88.2508750  77.1835874  16.3645575  86.9024342  77.8289639  16.6034670
  87.1919928  60.7997196   1.2336633  86.4252324  60.2455683   1.3793315
  87.6030633  60.8719065   2.0950784  79.1961689  67.0881992  15.3241814
  80.0593151  66.7318797  15.5345138  78.6227100  66.7495887  16.0117218
  91.7543190  80.4962708  16.3171785  91.3610136  79.9428907  16.9919430
  92.5709330  80.8073287  16.7078303  90.0355444  82.4173909  15.3241814
  90.8986905  82.0610714  15.5345138  89.4620854  82.0787804  16.0117218
  74.6532048  36.1724415  -1.2502748  74.6420688  35.7777213  -2.1222245
  74.8152687  35.4390488  -0.6568977  71.3739309  38.9561527  -2.3023564
  71.0829175  39.8607158  -2.4176898  72.0096293  38.9978055  -1.5879495
  76.3329194  38.6422943  -5.3073771  76.0329917  39.5447981  -5.4157963
  75.9880253  38.3755126  -4.4552618  73.8067203  32.5795128   0.3158564
  73.0300538  33.1389048   0.3061429  74.4457767  33.0651911   0.8373434
  72.0613576  35.3880582  -0.1223469  72.8028260  35.9265626  -0.3988645
  71.3550561  36.0146870   0.0348083  77.5368915  37.5309722  -1.5251308
  77.9452271  37.0892133  -2.2696675  76.8146177  36.9562350  -1.2717115
  73.8899985  32.4682329  -4.1517751  74.7361181  32.8921742  -4.0083102
  73.8298623  31.8115953  -3.4579187  77.8597730  38.0910913  -7.7699019
  77.2306593  38.2556627  -8.4722951  77.4723392  38.5052522  -6.9988055
  77.0399431  30.1286697  -2.4936577  76.7960363  30.8828758  -3.0302301
  77.3159361  30.5072045  -1.6589330  78.9937894  36.6725310  -3.8159311
  79.2054789  37.3157070  -4.4924930  78.9467642  35.8387626  -4.2837381
  70.7974940  32.5420230   0.6791841  70.1673600  33.2236511   0.9127238
  70.6911027  32.4303311  -0.2655021  80.1083722  39.5497265  -5.6436954
  80.9301165  39.1477452  -5.9254272  80.1046124  39.4465499  -4.6920838
  73.8740325  39.0981308  -3.4876244  73.9384757  39.5601716  -2.6518072
  73.1651249  38.4678673  -3.3593934  70.0755682  26.8440996   3.0417092
  69.6822628  26.2907194   3.7164736  70.8921823  27.1551574   3.4323610
  72.9923643  28.2598875   0.6337349  73.7333357  28.8606028   0.5541811
  73.2241566  27.5176513   0.0755391  68.1364981  33.4455242  -1.0884422
  68.0218496  32.5440499  -0.7877323  67.2809499  33.6918939  -1.4399605
  75.2156819  41.3872982   0.5103079  74.7720673  40.6009361   0.1923983
  75.8774033  41.5752133  -0.1553030  69.9743940  42.9168784  -4.9636243
  70.5251365  42.7885847  -5.7359249  69.1355416  43.2163673  -5.3141350
  77.3138057  41.6675782  -1.4615520  77.2956532  42.4884663  -1.9535251
  78.2357977  41.5429857  -1.2365379  73.7711111  39.1819912  -0.6192011
  74.3039448  38.4208200  -0.8492704  73.2425192  38.8893564   0.1232143
  76.5456123  32.9246214  -2.8899168  76.9005511  33.1517687  -2.0304702
  77.1928254  33.2564591  -3.5121913  76.0351135  41.7143271  -5.6405467
  76.0888157  42.2834207  -4.8727751  75.1665916  41.8845156  -6.0051430
  74.8175100  28.0422768  -2.1415355  74.1703015  28.7412718  -2.2350879
  75.5876115  28.4758912  -1.7739107  78.2253898  38.3071620   0.9335198
  78.0739404  38.0782172   0.0165282  78.2158577  39.2642222   0.9466543
  74.9939234  35.8803533  -4.0818535  75.9231294  36.0314693  -4.2549568
  74.5730264  35.9687554  -4.9369889  73.7927566  39.9054198  -6.3119998
  73.6538652  39.5372982  -5.4394060  73.0042162  40.4201837  -6.4836040
  69.3177025  34.6903430  -3.3978579  69.1796823  33.9583669  -2.7967040
  70.2281949  34.6012330  -3.6794391  71.9459326  34.4023390  -3.9094899
  72.6558944  33.7616582  -3.9508281  71.9028634  34.6536285  -2.9868718
  79.9346105  41.3390743  -0.9888320  79.8758651  40.6549963  -1.6557737
  80.3365623  42.0809733  -1.4407694  68.9536803  48.1552657  -8.1954601
  69.1933402  48.7871181  -7.5175582  68.1106000  47.8040697  -7.9089242
  79.9363512  39.3030327  -2.7574340  79.0490291  38.9656249  -2.6347941
  80.5062063  38.5713358  -2.5205575  73.4664665  43.9631779  -5.7913097
  73.3934837  44.7686751  -5.2793792  73.0242058  44.1623745  -6.6165076
  75.9263349  43.8618613  -3.6354938  76.6391321  44.4966078  -3.7079037
  75.4353377  43.9582479  -4.4514936  70.9775262  41.6113057  -2.8149367
  71.6784722  42.2449540  -2.6619973  70.5070377  41.9527788  -3.5753728
  75.7383722  44.2017357 -10.8868647  75.9206117  43.3839013 -10.4240894
  76.5616708  44.4185050 -11.3243757  74.8264121  34.9077475   1.4969220
  74.1504758  34.8071605   2.1671595  75.6491755  34.7516689   1.9605217
  66.5742980  41.1449412  -5.8818265  67.1596417  40.3993100  -5.7490361
  66.3767819  41.4553369  -4.9981601  73.5686904  46.2144403  -4.2673164
  74.1205212  46.3776024  -3.5024079  73.9093098  46.8048841  -4.9393139
  68.0203670  30.6342685  -0.0178245  68.6475709  30.2519762   0.5959279
  67.1631589  30.4156887   0.3477447  78.4197779  41.0405660   1.5875490
  78.9637683  41.6535619   1.0930445  77.8384623  41.5985239   2.1042503
  76.7055291  44.1626378  -7.2809482  76.5806431  43.3616118  -7.7898536
  77.3634383  44.6572572  -7.7695512  78.7690200  41.9635398  -5.6529932
  77.8220535  41.8440750  -5.7251605  79.1172973  41.0757896  -5.5703670
  75.7736633  41.7588115  -9.4525580  75.6261596  40.8304822  -9.2718010
  76.5990127  41.7808205  -9.9368504  79.3770755  42.5816673  -8.3660707
  80.3017302  42.3759535  -8.5036256  79.2086058  42.3333074  -7.4571365
  73.7152716  43.7802884  -2.2524510  74.0239842  43.5352031  -1.3801810
  74.5128198  43.9849523  -2.7405639  73.7373328  45.9340794 -10.0219133
  73.2978318  45.4417173  -9.3286276  74.4881445  45.3913762 -10.2627058
  71.2571727  29.9560591   1.6435675  71.3059883  30.8322714   1.2613444
  71.7994241  29.4137984   1.0707318  81.7426573  40.5001714   0.9236812
  80.9522117  40.4825853   0.3841311  81.5059927  41.0390008   1.6785848
  81.8624448  37.3494181  -1.7630460  81.9122453  37.1844188  -0.8214937
  81.7538371  36.4821440  -2.1532579  79.1528210  33.3325109  -0.4471153
  80.0538073  33.1931574  -0.7387155  79.2276185  33.4979564   0.4927024
  73.4871016  30.7091964  -1.6017967  72.6174325  31.0025530  -1.8735378
  73.7230496  31.2932409  -0.8810703  83.3642645  39.7691122  -1.5188438
  83.0727453  40.1321103  -0.6824977  82.7514776  39.0558131  -1.6975106
  74.5141603  37.9109416   1.7990086  75.4344613  38.0888015   1.9930133
  74.4791186  36.9665461   1.6469785  72.3831541  31.3943656   3.8315616
  72.2828268  32.3438013   3.7627707  72.1653083  31.0661895   2.9591686
  72.2462811  34.8240795   2.6480678  71.7629893  35.6241155   2.8544567
  72.3323750  34.8348740   1.6948122  68.1736149  38.7145330  -5.3150888
  69.1279402  38.6829272  -5.3820957  67.9748672  38.2535953  -4.5000663
  68.7635531  37.2846446  -2.7480091  69.5828420  37.7790524  -2.7245254
  69.0372338  36.3678414  -2.7762523  69.6855503  45.1534266  -8.0862248
  69.5687887  46.0979699  -8.1883558  68.8647950  44.8507828  -7.6976449
  76.5423837  38.6865427   3.4504247  77.4114997  38.8606079   3.0890882
  76.0630589  39.5059844   3.3279976  70.7110017  45.8062528  -4.8706320
  71.6137264  45.8386138  -4.5539825  70.4847387  44.8762979  -4.8559984
  72.4663619  44.5593515  -8.2096241  71.5159250  44.5595376  -8.3231869
  72.7696106  43.8126249  -8.7260206  68.3567936  28.7652197   2.0487120
  69.2199398  28.4089002   2.2590445  67.7833347  28.4266092   2.7362525
  85.4925802  51.5016333  -1.2502748  85.4814443  51.1069131  -2.1222245
  85.6546442  50.7682405  -0.6568977  82.2133063  54.2853445  -2.3023564
  81.9222929  55.1899076  -2.4176898  82.8490048  54.3269972  -1.5879495
  77.9844241  50.0661931  -8.4393277  78.1136622  50.3196410  -7.5253865
  77.3041692  50.6589639  -8.7588622  84.6460958  47.9087046   0.3158564
  83.8694292  48.4680966   0.3061429  85.2851521  48.3943829   0.8373434
  82.9007330  50.7172499  -0.1223469  83.6422015  51.2557543  -0.3988645
  82.1944316  51.3438788   0.0348083  88.3762670  52.8601640  -1.5251308
  88.7846026  52.4184050  -2.2696675  87.6539931  52.2854267  -1.2717115
  84.7293740  47.7974247  -4.1517751  85.5754935  48.2213660  -4.0083102
  84.6692378  47.1407871  -3.4579187  87.8793185  45.4578615  -2.4936577
  87.6354117  46.2120675  -3.0302301  88.1553116  45.8363963  -1.6589330
  81.6368694  47.8712148   0.6791841  81.0067355  48.5528428   0.9127238
  81.5304782  47.7595229  -0.2655021  76.9313666  47.5383944  -8.3942235
  76.1412720  47.7941472  -8.8702124  77.4224914  48.3532281  -8.2890194
  84.7134079  54.4273226  -3.4876244  84.7778512  54.8893633  -2.6518072
  84.0045003  53.7970591  -3.3593934  75.2151369  47.7914434  -5.9627244
  75.4659408  48.6761444  -5.6969668  75.7510918  47.6119036  -6.7352152
  80.9149437  42.1732913   3.0417092  80.5216382  41.6199112   3.7164736
  81.7315577  42.4843492   3.4323610  83.8317398  43.5890792   0.6337349
  84.5727111  44.1897946   0.5541811  84.0635321  42.8468430   0.0755391
  78.9758736  48.7747160  -1.0884422  78.8612251  47.8732417  -0.7877323
  78.1203253  49.0210856  -1.4399605  86.0550573  56.7164900   0.5103079
  85.6114428  55.9301279   0.1923983  86.7167787  56.9044051  -0.1553030
  84.6104866  54.5111829  -0.6192011  85.1433203  53.7500118  -0.8492704
  84.0818947  54.2185481   0.1232143  87.3849878  48.2538132  -2.8899168
  87.7399265  48.4809605  -2.0304702  88.0322009  48.5856509  -3.5121913
  81.2789741  45.3614663  -6.1052827  81.9189120  45.2203422  -6.8029864
  80.4467271  45.0749176  -6.4814225  78.2818357  45.3314988 -11.3279840
  78.5425174  46.2460321 -11.4370680  79.1035530  44.8639430 -11.1783228
  79.7543283  46.7452745  -4.1581016  80.4266336  46.5370107  -4.8068367
  78.9273069  46.5474831  -4.5975784  85.6568855  43.3714686  -2.1415355
  85.0096770  44.0704636  -2.2350879  86.4269870  43.8050830  -1.7739107
  89.0647652  53.6363538   0.9335198  88.9133159  53.4074090   0.0165282
  89.0552332  54.5934140   0.9466543  85.8332989  51.2095451  -4.0818535
  86.7625049  51.3606611  -4.2549568  85.4124019  51.2979472  -4.9369889
  80.1570780  50.0195348  -3.3978579  80.0190578  49.2875587  -2.7967040
  81.0675703  49.9304248  -3.6794391  82.7853080  49.7315307  -3.9094899
  83.4952699  49.0908500  -3.9508281  82.7422389  49.9828202  -2.9868718
  81.4982014  46.7180525  -2.0899260  80.9619371  46.2671264  -1.4377663
  80.9098723  46.8526434  -2.8328795  72.4286413  50.9646336  -9.4331289
  73.1157453  50.6508066 -10.0210273  72.2734542  51.8687701  -9.7064037
  77.2321136  45.8536533  -5.0046265  77.1479324  45.2462202  -5.7395855
  76.4103842  46.3445551  -5.0036769  81.8169017  56.9404974  -2.8149367
  82.5178476  57.5741457  -2.6619973  81.3464132  57.2819706  -3.5753728
  85.6657876  50.2369393   1.4969220  84.9898513  50.1363522   2.1671595
  86.4885510  50.0808607   1.9605217  77.4136735  56.4741330  -5.8818265
  77.9990172  55.7285017  -5.7490361  77.2161573  56.7845286  -4.9981601
  72.0054390  49.0446930  -7.1613822  72.0438489  48.5110520  -6.3676704
  71.4994682  48.5182135  -7.7802844  79.3845152  43.8911470  -3.6651279
  79.4486478  44.7526301  -4.0773882  79.3212272  43.2785472  -4.3978921
  78.8597424  45.9634603  -0.0178245  79.4869463  45.5811680   0.5959279
  78.0025343  45.7448805   0.3477447  89.2591533  56.3697578   1.5875490
  89.8031437  56.9827536   1.0930445  88.6778378  56.9277156   2.1042503
  79.1657214  45.8467028  -8.1032342  78.4443800  46.4602996  -8.2424868
  79.9550470  46.3824793  -8.1815696  81.9683528  43.1821455  -1.8291690
  82.4917930  43.4283752  -1.0665381  81.7495861  44.0141490  -2.2488553
  83.1736073  44.1235150  -4.1442019  82.8332893  43.3242963  -3.7421339
  82.4675079  44.4236861  -4.7165186  81.3491123  47.9003583  -7.8822718
  81.2035704  48.2143886  -6.9898436  80.8716327  48.5188483  -8.4351819
  85.0613637  45.3243471  -5.7888701  84.8031415  46.2460542  -5.7904370
  84.5298677  44.9273906  -5.0988237  75.8236786  50.4408928  -4.9435057
  75.2790254  51.2168735  -4.8114782  76.7016135  50.7879732  -5.1015935
  76.6102807  49.5678824  -2.0504900  75.8684543  49.7161459  -1.4640269
  76.2895552  49.8287089  -2.9138150  82.0965482  45.2852509   1.6435675
  82.1453637  46.1614632   1.2613444  82.6387996  44.7429902   1.0707318
  92.5820327  55.8293632   0.9236812  91.7915871  55.8117771   0.3841311
  92.3453682  56.3681926   1.6785848  92.7018202  52.6786098  -1.7630460
  92.7516207  52.5136106  -0.8214937  92.5932126  51.8113357  -2.1532579
  89.9921965  48.6617026  -0.4471153  90.8931828  48.5223491  -0.7387155
  90.0669939  48.8271481   0.4927024  84.3264770  46.0383881  -1.6017967
  83.4568080  46.3317447  -1.8735378  84.5624251  46.6224326  -0.8810703
  85.3535358  53.2401333   1.7990086  86.2738367  53.4179932   1.9930133
  85.3184941  52.2957379   1.6469785  74.5717523  48.4339927  -9.2756639
  74.2520307  47.5805235  -9.5682265  74.0250951  48.6488505  -8.5198672
  78.3497430  51.1502368  -5.5587133  78.5683440  52.0819476  -5.5399099
  78.7623204  50.7910342  -4.7732329  83.2225296  46.7235574   3.8315616
  83.1222022  47.6729931   3.7627707  83.0046838  46.3953813   2.9591686
  74.4405783  52.0542839  -7.3063518  73.7469254  51.6396791  -7.8193563
  75.1878774  52.0963375  -7.9030099  83.0856566  50.1532713   2.6480678
  82.6023647  50.9533073   2.8544567  83.1717505  50.1640658   1.6948122
  79.0129903  54.0437247  -5.3150888  79.9673157  54.0121190  -5.3820957
  78.8142427  53.5827871  -4.5000663  79.6029285  52.6138363  -2.7480091
  80.4222174  53.1082442  -2.7245254  79.8766093  51.6970332  -2.7762523
  74.8564199  46.9476497  -2.0487894  75.5023063  46.4375451  -1.5600669
  74.6481351  47.6845179  -1.4744468  87.3817592  54.0157345   3.4504247
  88.2508751  54.1897997   3.0890882  86.9024343  54.8351762   3.3279976
  79.1961690  44.0944114   2.0487120  80.0593152  43.7380919   2.2590445
  78.6227101  43.7558009   2.7362525  91.7543191  57.5024831   3.0417092
  91.3610137  56.9491030   3.7164736  92.5709332  57.8135410   3.4323610
  90.0355445  59.4236032   2.0487120  90.8986907  59.0672837   2.2590445
  89.4620856  59.0849927   2.7362525   1.4839671  97.2103690  70.3576175
   0.7303379  96.6411088  70.2020179   1.6187212  97.1766354  71.3046809
   1.8946086  97.3679300  73.0896419   2.6249475  97.1064588  73.6504122
   1.2853032  96.6308021  73.1298487   1.4839672  74.2165812  57.0821481
   0.7303381  73.6473210  56.9265486   1.6187214  74.1828477  58.0292116
   1.8946087  74.3741422  59.8141725   2.6249476  74.1126710  60.3749429
   1.2853033  73.6370144  59.8543793   1.4866271  88.7183852  59.2322985
   2.1244681  88.5990599  58.5286325   1.3687114  89.6664696  59.2910937
   1.0407539  86.4435306  56.3076193   1.8270628  86.0254729  55.9566610
   1.3046243  87.3481398  56.4757842   1.2117617  91.8808156  51.0064850
   0.5763450  91.9542782  51.7185755   0.8815023  92.4701755  50.3283929
   6.4415966  86.3810539  57.2109172   7.1741138  85.8109756  57.4447001
   5.6855322  85.9932139  57.6515677   3.9641387  80.0932113  61.6703780
   3.6324711  80.9627524  61.4464995   3.3687000  79.7768397  62.3497811
   3.8570050  84.8127199  58.7497130   2.9486927  84.7442607  58.4555891
   3.8057646  85.2899144  59.5778956   5.7231696  83.0143637  60.5275004
   5.0806077  83.3076171  59.8814799   5.2186625  82.8996558  61.3328201
   3.3771860  86.7606811  51.2160864   4.2889716  86.9934197  51.0408561
   2.8681507  87.3443855  50.6535942   1.6612628  91.1831438  64.8522156
   2.0695984  90.7413849  64.1076789   0.9389889  90.6084066  65.1056349
   1.9841442  91.7432629  58.6074445   1.3550305  91.9078343  57.9050513
   1.5967104  92.1574239  59.3785409   5.8630674  92.6787067  55.9618809
   5.1781712  93.0585968  55.4115842   5.9474524  93.2882394  56.6950757
   1.1643143  83.7808414  63.8836887   0.9204075  84.5350474  63.3471162
   1.4403074  84.1593761  64.7184134   3.1181606  90.3247026  62.5614152
   3.3298501  90.9678786  61.8848533   3.0711354  89.4909342  62.0936082
   4.2327434  93.2018981  60.7336510   5.0544878  92.7999169  60.4519191
   4.2289837  93.0987216  61.6852625  12.3233427  89.5457730  57.0821481
  11.5697135  88.9765128  56.9265486  12.4580968  89.5120394  58.0292116
   1.4381769  95.3197499  64.9157944   1.4200245  96.1406380  64.4238213
   2.3601689  95.1951574  65.1408085   1.0624518  77.9401694  61.2875094
   0.7188788  78.8303336  61.2114205   1.4303481  77.7503352  60.4244679
   1.0274801  87.9310305  49.7947529   0.5121425  88.7014910  50.0335917
   0.7552110  87.2575441  50.4180591   6.0009075  90.6842660  51.7300703
   5.2238518  90.3453819  51.2855865   6.6800556  90.6895283  51.0555668
   0.8161104  85.8037397  51.6207310   0.5111240  86.1183546  52.4717453
   1.7691546  85.8818817  51.6634643   4.2400382  90.1576641  58.3867311
   3.5824057  90.8475902  58.4747439   5.0440781  90.5473073  58.7301297
   3.0505841  88.5121014  56.4371252   3.5637723  89.1451006  56.9392962
   3.7007065  87.9122209  56.0714612   3.8167637  93.4927015  54.5650395
   3.3629964  92.6517925  54.6215585   3.1861604  94.1288414  54.9025175
   2.7600557  84.4219001  55.7951062   2.0223314  83.9096387  56.1261305
   3.0127330  83.9819383  54.9834339   2.2600576  95.3303512  55.5000213
   2.5523551  95.8908569  54.7812579   2.7699197  95.6232073  56.2553372
   2.8612184  77.1995253  56.3892832   3.1671061  76.3392617  56.1018747
   3.5864789  77.7912873  56.1891826   0.6699835  86.5767930  63.4874295
   1.0249223  86.8039404  64.3468761   1.3171967  86.9086307  62.8651551
   6.3997572  89.6986366  54.1923625   6.2615471  89.8887962  53.2644814
   6.0433791  90.4605749  54.6491676   6.4266952  91.7662893  59.2034896
   6.8603459  91.6738182  60.0517950   7.1398533  91.7420394  58.5654912
   7.2882502  91.8086594  61.7367781   7.4818392  92.7132405  61.9827056
   7.1883120  91.3494013  62.5706366   2.3497610  91.9593337  67.3108662
   2.1983117  91.7303888  66.3938746   2.3402290  92.9163938  67.3240007
   2.4035685  90.2813551  47.7279364   1.7864856  89.5560379  47.6312416
   1.9352174  91.0422911  47.3846438   4.0589817  94.9912459  65.3885144
   4.0002363  94.3071679  64.7215727   4.4609335  95.7331449  64.9365770
   4.0607224  92.9552043  63.6199124   3.1734003  92.6177965  63.7425522
   4.6305775  92.2235075  63.8567889   8.5424565  88.3660261  58.3815685
   8.5314441  89.2484976  58.0109618   7.6741944  88.0131811  58.1870222
   1.7724588  91.4191582  54.3135817   0.8380867  91.5393045  54.1440521
   1.9501256  90.5164049  54.0495827   5.1597139  87.2608902  54.8485851
   5.6257592  88.0936893  54.7746154   5.6104640  86.7953883  55.5531110
   3.2273370  93.6052723  51.8472003   3.5033214  93.4909317  52.7565877
   2.3577869  93.2070208  51.8084176   3.1313802  79.6289489  58.8876753
   2.2176882  79.8593715  59.0558960   3.5606904  79.7127933  59.7390785
   2.9020261  87.8179381  61.3876647   2.2491711  88.0655288  60.7329099
   3.2800640  87.0043519  61.0539124   2.5441491  94.6927377  67.9648954
   3.0881395  95.3057335  67.4703909   1.9628336  95.2506955  68.4815967
   0.8299004  97.8148095  59.0963982   0.7050143  97.0137834  58.5874927
   1.4878095  98.3094288  58.6077952   2.8933912  95.6157115  60.7243532
   1.9464248  95.4962466  60.6521859   3.2416685  94.7279613  60.8069793
   3.5014467  96.2338390  58.0112757   4.4261015  96.0281251  57.8737208
   3.3329771  95.9854791  58.9202098   3.2909784  96.7524057  53.3674848
   3.4646661  96.1870480  52.6148701   3.7838675  97.5524952  53.1854338
   9.1449175  89.5160480  54.9865148   9.5880321  88.7667805  54.5884271
   8.2675685  89.5070616  54.6038880   4.2784956  96.0690821  50.4671747
   4.9735861  96.6897514  50.6859061   4.6208106  95.2186173  50.7424125
   6.1776379  93.5190527  51.9959077   6.7027703  93.8577800  51.2708397
   6.0898732  92.5837542  51.8122212   5.8670285  94.1523431  67.3010275
   5.0765829  94.1347570  66.7614775   5.6303640  94.6911724  68.0559312
   5.9868160  91.0015897  64.6143004   6.0366165  90.8365904  65.5558527
   5.8782084  90.1343156  64.2240885   3.2771923  86.9846825  65.9302311
   4.1781785  86.8453290  65.6386308   3.3519897  87.1501280  66.8700488
   7.4886357  93.4212839  64.8585025   7.1971165  93.7842819  65.6948486
   6.8758488  92.7079847  64.6798358   8.6882039  90.9865718  57.3787596
   9.5228931  91.4255522  57.5425156   8.8241168  90.5104372  56.5595841
   5.7373545  88.5445453  63.3265083   6.2127667  88.7373099  62.5183935
   4.8139111  88.6004639  63.0808467   0.5666356  76.9993579  57.8121814
   0.8468110  76.3316768  58.4382240   1.3516963  77.1922675  57.2996478
   4.4375214  85.4211213  61.5593389   5.3892637  85.5209311  61.5805613
   4.2678665  84.6289482  62.0691473   2.4589594  82.5066796  61.7452790
   1.8639526  82.7871809  61.0499279   2.1739290  82.9960697  62.5169531
   1.5897084  96.4589723  50.5055423   2.5227757  96.3935285  50.7088298
   1.5020297  97.2945990  50.0469955   4.2185101  95.7755594  47.4659370
   4.1398732  95.4415457  48.3595128   5.0394768  96.2677362  47.4650842
   6.9163292  88.6417333  60.6735689   6.8839612  87.7033334  60.8595373
   7.5263916  88.7201370  59.9401514   7.0657781  85.4328376  60.7193972
   6.5496829  84.6486833  60.5323901   7.9497729  85.1047093  60.8840491
   4.7268507  79.1769392  56.6789785   4.5293329  78.8684480  57.5633117
   5.3368213  79.9031031  56.8087714  12.7339842  89.7033340  59.8141725
  13.4643230  89.4418628  60.3749429  12.1246787  88.9662062  59.8543793
  10.8155139  87.8441202  60.4116177  10.0888303  87.7097167  59.8032668
  10.4002426  88.1518031  61.2172895   0.4842154  79.0578299  54.4286316
   1.0373193  79.4773752  55.0876339   0.7212240  78.1314047  54.4709272
   3.8620961  81.1678824  53.9364980   3.2819630  81.8263628  53.5543033
   3.5956894  80.3456169  53.5252398   2.3124528  80.5683882  56.1386300
   2.8124306  80.6800416  55.3300619   2.9560135  80.2644935  56.7787109
   2.6445839  83.3278914  52.9921328   1.7571694  83.6128565  52.7741523
   3.0599828  83.1672678  52.1448605   5.9960375  83.3525435  56.7075668
   6.7720765  83.8421888  56.9800284   5.2708510  83.7783490  57.1647537
   8.4332934  84.0653055  57.7649608   9.0277425  83.8248791  57.0542917
   8.5059518  83.3460185  58.3923145   1.7889053  93.0923589  47.0869348
   2.4924903  93.2973592  47.7027004   1.0651701  93.6600351  47.3518432
   2.6186863  88.8433450  53.2071619   2.5622064  89.3002002  52.3679251
   3.1715205  88.0824135  53.0294461   6.4291669  84.6323182  54.0321738
   6.1728603  84.2319818  54.8629946   5.8044537  85.3466976  53.9071877
  10.7404007  87.3719255  56.5393029  10.1803565  87.4412445  57.3124592
  10.1347510  87.1960240  55.8192526   3.6975750  93.5306118  49.1367808
   4.5321354  93.0987317  48.9545283   3.5360093  93.3588132  50.0644703
   3.3521642  90.0338232  50.5024148   3.2970446  89.8682503  49.5612592
   2.7267698  90.7414264  50.6586337  11.8801294 101.7727223  56.3076193
  12.6664383 101.3546646  55.9566610  12.1439998 102.6773315  56.4757842
  17.2809721 101.7102456  57.2109172  18.0134893 101.1401673  57.4447001
  16.5249076 101.3224057  57.6515677  14.8035141  95.4224031  61.6703780
  14.4718466  96.2919441  61.4464995  14.2080755  95.1060315  62.3497811
   8.5391327  99.1619598  49.4033863   8.7065730 100.0299834  49.7704334
   8.3488497  99.3246879  48.4795152  14.6963804 100.1419117  58.7497130
  13.7880682 100.0734525  58.4555891  14.6451400 100.6191062  59.5778956
  16.5625451  98.3435555  60.5275004  15.9199831  98.6368088  59.8814799
  16.0580379  98.2288475  61.3328201  14.2165615 102.0898728  51.2160864
  15.1283471 102.3226115  51.0408561  13.7075262 102.6735772  50.6535942
   8.8537452 101.4495963  62.2255713   9.6998647 101.8735376  62.3690362
   8.7936090 100.7929587  62.9194276  12.0036898  99.1100331  63.8836887
  11.7597829  99.8642392  63.3471162  12.2796828  99.4885679  64.7184134
  11.5601589  98.2656764  59.4650724  10.6986068  98.5638018  59.7567462
  11.5864024  98.4827163  58.5331757  23.1627181 104.8749648  57.0821481
  22.4090890 104.3057046  56.9265486  23.2974723 104.8412312  58.0292116
   5.0393149  95.8254630  69.4190556   4.6460095  95.2720828  70.0938200
   5.8559289  96.1365208  69.8097073   7.9561110  97.2412509  67.0110812
   8.6970823  97.8419662  66.9315275   8.1879033  96.4990147  66.4528855
  11.9018273  93.2693612  61.2875094  11.5582542  94.1595253  61.2114205
  12.2697236  93.0795269  60.4244679   9.4515667  98.1051924  54.8532767
   8.5957263  97.7158774  54.6738406   9.8642618  98.1843884  53.9932553
  10.9814813  95.6398267  59.2524327  10.4779609  95.6028402  58.4392133
  11.2745420  96.5491010  59.3120984   7.2257699  95.7236997  58.2590509
   8.0910696  95.5279805  57.8996398   7.2935208  95.4947348  59.1859866
  11.6554859 101.1329315  51.6207310  11.3504994 101.4475464  52.4717453
  12.6085301 101.2110735  51.6634643   4.8320018  97.9539205  55.6306876
   5.4063770  97.7314386  54.8980069   5.4191001  98.0227899  56.3835477
   5.1589605  99.9843666  49.6502761   4.3226918 100.3218352  49.9712036
   5.0194375  99.8492645  48.7129898   7.1342686  94.8280453  54.3581945
   6.4807098  94.5129471  53.7338560   7.0923160  94.2056194  55.0841768
  10.3680426 101.3162387  58.6829593   9.4502988 101.5377334  58.5251281
  10.7840570 101.3908697  57.8241300  13.5994311  99.7510919  55.7951062
  12.8617068  99.2388305  56.1261305  13.8521085  99.3111300  54.9834339
  13.7005939  92.5287171  56.3892832  14.0064815  91.6684534  56.1018747
  14.4258543  93.1204791  56.1891826  11.5093590 101.9059848  63.4874295
  11.8642978 102.1331321  64.3468761  12.1565721 102.2378225  62.8651551
   5.4033453  99.0136379  60.2720637   6.0432832  98.8725138  59.5743600
   4.5710984  98.7270893  59.8959239   9.7812567  97.0236402  64.2358109
   9.1340482  97.7226352  64.1422585  10.5513582  97.4572546  64.6034357
   5.6225727 100.3702242  64.2874204   5.0863084  99.9192980  64.9395801
   5.0342435 100.5048150  63.5444669   5.0327986  99.8290893  46.8500668
   4.1557452  99.7079694  46.4862914   5.5085739  99.0376971  46.5979556
  11.5288562  97.9911813  56.7397394  12.0257261  97.2381775  56.4198464
  10.7575543  98.0276129  56.1740603  19.3818319 103.6952178  58.3815685
  19.3708195 104.5776894  58.0109618  18.5135699 103.3423729  58.1870222
   8.1123531 100.1329196  56.4669078   7.7421318  99.5800236  57.1549984
   8.6082623  99.5287329  55.9144078  15.9990894 102.5900819  54.8485851
  16.4651346 103.4228811  54.7746154  16.4498394 102.1245801  55.5531110
  13.9707557  94.9581406  58.8876753  13.0570636  95.1885633  59.0558960
  14.4000658  95.0419850  59.7390785  13.7414015 103.1471298  61.3876647
  13.0885465 103.3947206  60.7329099  14.1194395 102.3335436  61.0539124
   3.5088864  97.5433187  62.7122184   3.5730191  98.4048017  62.2999582
   3.4455984  96.9307188  61.9794543   2.9841137  99.6156319  66.3595219
   3.6113176  99.2333396  66.9732743   2.1269056  99.3970521  66.7250911
   6.0927240  96.8343171  64.5481774   6.6161642  97.0805468  65.3108083
   5.8739573  97.6663206  64.1284911   1.4894521  99.1046846  52.4152899
   1.1607227  98.2244225  52.2328005   1.8433892  99.0494515  53.3029288
   4.6036344  99.3919816  52.7828376   4.9432417  99.9205737  52.0606985
   5.0508465  99.7300222  53.5586943   7.2979785  97.7756866  62.2331444
   6.9576605  96.9764679  62.6352124   6.5918791  98.0758577  61.6608278
   7.9496257  94.8606179  60.6858767   8.7722326  94.3866657  60.5637658
   8.1934320  95.6396663  61.1857454   6.5904491  97.8894437  50.9821669
   7.3112854  98.2675690  50.4785386   5.9669795  98.6083314  51.0856647
  10.7335614  98.5939586  51.9180001  10.9499229  99.4764224  51.6168830
  10.2529681  98.2025800  51.1885643   7.3331219  98.5427847  58.5431636
   7.3192787  97.6468941  58.2063934   8.0503647  98.5498511  59.1769922
   9.1857349  98.9765188  60.5884763   8.9275127  99.8982258  60.5869093
   8.6542390  98.5795622  61.2785227   6.7368114  97.4242228  53.8119206
   6.8584026  96.4958874  54.0110093   6.4470157  97.4380914  52.8997521
   9.6059305  95.1097138  56.9485926   9.6281002  95.1736471  55.9937905
  10.0227364  94.2701647  57.1426432  19.9842929 104.8452398  54.9865148
  20.4274075 104.0959723  54.5884271  19.1069439 104.8362534  54.6038880
   6.2209194  98.9374225  68.0209138   6.2697349  99.8136348  67.6386908
   6.7631708  98.3951618  67.4480782  14.1165677 102.3138743  65.9302311
  15.0175540 102.1745208  65.6386308  14.1913652 102.4793198  66.8700488
   8.4508482  99.6905597  64.7755497   7.5811792  99.9839164  64.5038085
   8.6867963 100.2746042  65.4962761  16.5767300 103.8737371  63.3265083
  17.0521421 104.0665017  62.5183935  15.6532865 103.9296557  63.0808467
  11.1547516  95.9085214  62.2920917  11.6729460  96.6446241  61.9667406
  10.8002649  96.2149208  63.1267676  11.4060110  92.3285497  57.8121814
  11.6861864  91.6608686  58.4382240  12.1910717  92.5214593  57.2996478
  15.2768969 100.7503131  61.5593389  16.2286392 100.8501229  61.5805613
  15.1072419  99.9581399  62.0691473  13.2983348  97.8358714  61.7452790
  12.7033280  98.1163727  61.0499279  13.0133045  98.3252615  62.5169531
  17.7557047 103.9709251  60.6735689  17.7233367 103.0325251  60.8595373
  18.3657670 104.0493287  59.9401514  17.9051535 100.7620294  60.7193972
  17.3890584  99.9778751  60.5323901  18.7891484 100.4339011  60.8840491
  15.5662262  94.5061310  56.6789785  15.3687083  94.1976398  57.5633117
  16.1761968  95.2322949  56.8087714  23.5733596 105.0325257  59.8141725
  24.3036985 104.7710546  60.3749429  22.9640542 104.2953979  59.8543793
  21.6548894 103.1733120  60.4116177  20.9282057 103.0389085  59.8032668
  21.2396180 103.4809949  61.2172895   7.7783295 100.7655280  46.6517778
   6.8714750 100.4688393  46.7280492   8.0559276 100.4685098  45.7852064
   9.3945360  95.3092170  52.8062019   8.5846089  94.9639255  53.1817265
  10.0829777  94.9999713  53.3949631  11.3235909  94.3870217  54.4286316
  11.8766947  94.8065670  55.0876339  11.5605995  93.4605965  54.4709272
   7.3469008 100.3757290  70.2089080   7.2465735 101.3251647  70.1401171
   7.1290550 100.0475529  69.3365150   6.5482079  97.6242215  46.7929757
   7.4101243  97.9497114  47.0525575   6.7332423  96.8373711  46.2802823
  14.7014716  96.4970742  53.9364980  14.1213385  97.1555546  53.5543033
  14.4350648  95.6748086  53.5252398  13.1518282  95.8975799  56.1386300
  13.6518060  96.0092334  55.3300619  13.7953890  95.5936852  56.7787109
  13.4839594  98.6570832  52.9921328  12.5965449  98.9420483  52.7741523
  13.8993583  98.4964595  52.1448605  16.8354130  98.6817353  56.7075668
  17.6114520  99.1713805  56.9800284  16.1102264  99.1075407  57.1647537
  19.2726688  99.3944972  57.7649608  19.8671179  99.1540708  57.0542917
  19.3453272  98.6752103  58.3923145  17.2685423  99.9615100  54.0321738
  17.0122358  99.5611736  54.8629946  16.6438291 100.6758894  53.9071877
  21.5797761 102.7011173  56.5393029  21.0197319 102.7704362  57.3124592
  20.9741265 102.5252158  55.8192526   7.5011522  94.8638258  50.0809466
   7.4890192  95.8080098  50.2377737   8.3934944  94.6808404  49.7868927
  11.3163642  91.4581035  54.3355403  10.5496037  90.9039522  54.4812085
  11.7274347  91.5302904  55.1969555   3.3205403  97.7465831  68.4260584
   4.1836864  97.3902636  68.6363909   2.7470813  97.4079726  69.1135988
   1.4839674  51.2227935  43.8066788   0.7303382  50.6535333  43.6510792
   1.6187215  51.1890599  44.7537423   1.8946089  51.3803545  46.5387032
   2.6249477  51.1188833  47.0994735   1.2853034  50.6432267  46.5789100
   1.4866272  65.7245974  45.9568292   2.1244682  65.6052722  45.2531632
   1.3687115  66.6726818  46.0156244   1.0407540  63.4497428  43.0321500
   1.8270630  63.0316851  42.6811917   1.3046245  64.3543520  43.2003148
   1.2117618  68.8870278  37.7310157   0.5763451  68.9604905  38.4431061
   0.8815024  69.4763877  37.0529236   6.4415968  63.3872661  43.9354478
   7.1741140  62.8171878  44.1692308   5.6855323  62.9994262  44.3760984
   3.9641388  57.0994235  48.3949087   3.6324713  57.9689646  48.1710302
   3.3687001  56.7830519  49.0743117   3.8570051  61.8189322  45.4742437
   2.9486929  61.7504730  45.1801198   3.8057647  62.2961267  46.3024263
   5.7231698  60.0205760  47.2520311   5.0806078  60.3138293  46.6060106
   5.2186626  59.9058680  48.0573508   3.3771861  63.7668933  37.9406170
   4.2889717  63.9996320  37.7653868   2.8681508  64.3505977  37.3781249
   1.6612629  68.1893561  51.5767463   2.0695985  67.7475972  50.8322095
   0.9389890  67.6146189  51.8301656   1.9841444  68.7494752  45.3319752
   1.3550306  68.9140466  44.6295820   1.5967106  69.1636361  46.1030716
   5.8630676  69.6849190  42.6864115   5.1781714  70.0648091  42.1361149
   5.9474525  70.2944516  43.4196063   1.1643144  60.7870536  50.6082193
   0.9204076  61.5412597  50.0716469   1.4403075  61.1655884  51.4429440
   3.1181607  67.3309149  49.2859459   3.3298502  67.9740908  48.6093840
   3.0711355  66.4971465  48.8181389   4.2327435  70.2081104  47.4581816
   5.0544879  69.8061291  47.1764498   4.2289838  70.1049338  48.4097932
  12.3233428  66.5519852  43.8066788  11.5697136  65.9827251  43.6510792
  12.4580969  66.5182517  44.7537423   1.4381771  72.3259621  51.6403251
   1.4200246  73.1468502  51.1483520   2.3601691  72.2013696  51.8653392
   1.0624520  54.9463817  48.0120401   0.7188789  55.8365458  47.9359511
   1.4303482  54.7565474  47.1489986   1.0274802  64.9372428  36.5192836
   0.5121426  65.7077032  36.7581223   0.7552111  64.2637564  37.1425897
   6.0009077  67.6904782  38.4546009   5.2238519  67.3515942  38.0101171
   6.6800558  67.6957406  37.7800974   0.8161106  62.8099520  38.3452617
   0.5111241  63.1245669  39.1962760   1.7691548  62.8880940  38.3879950
   4.2400383  67.1638764  45.1112617   3.5824058  67.8538025  45.1992746
   5.0440783  67.5535196  45.4546604   3.0505842  65.5183136  43.1616559
   3.5637724  66.1513128  43.6638269   3.7007066  64.9184332  42.7959919
   3.8167638  70.4989138  41.2895702   3.3629966  69.6580048  41.3460892
   3.1861605  71.1350536  41.6270482   2.7600558  61.4281124  42.5196369
   2.0223315  60.9158510  42.8506612   3.0127332  60.9881505  41.7079646
   2.2600578  72.3365634  42.2245520   2.5523552  72.8970692  41.5057885
   2.7699198  72.6294195  42.9798679   2.8612185  54.2057376  43.1138138
   3.1671062  53.3454739  42.8264053   3.5864790  54.7974996  42.9137132
   0.6699837  63.5830053  50.2119602   1.0249224  63.8101526  51.0714068
   1.3171968  63.9148430  49.5896857   6.3997574  66.7048489  40.9168931
   6.2615472  66.8950085  39.9890120   6.0433792  67.4667872  41.3736982
   6.4266953  68.7725016  45.9280203   6.8603460  68.6800305  46.7763257
   7.1398534  68.7482516  45.2900219   7.2882503  68.8148717  48.4613088
   7.4818393  69.7194527  48.7072363   7.1883121  68.3556136  49.2951673
   2.3497612  68.9655459  54.0353969   2.1983118  68.7366011  53.1184052
   2.3402291  69.9226061  54.0485314   2.4035686  67.2875674  34.4524670
   1.7864857  66.5622502  34.3557723   1.9352175  68.0485034  34.1091744
   4.0589818  71.9974582  52.1130451   4.0002364  71.3133802  51.4461034
   4.4609337  72.7393572  51.6611077   4.0607225  69.9614166  50.3444430
   3.1734004  69.6240088  50.4670829   4.6305776  69.2297197  50.5813196
   8.5424566  65.3722383  45.1060992   8.5314442  66.2547099  44.7354925
   7.6741945  65.0193934  44.9115529   1.7724589  68.4253705  41.0381124
   0.8380868  68.5455167  40.8685828   1.9501258  67.5226172  40.7741134
   5.1597141  64.2671024  41.5731158   5.6257593  65.0999016  41.4991461
   5.6104641  63.8016006  42.2776416   3.2273372  70.6114846  38.5717310
   3.5033216  70.4971440  39.4811184   2.3577870  70.2132330  38.5329483
   3.1313803  56.6351611  45.6122059   2.2176883  56.8655838  45.7804266
   3.5606905  56.7190055  46.4636092   2.9020262  64.8241503  48.1121953
   2.2491712  65.0717411  47.4574406   3.2800642  64.0105641  47.7784431
   2.5441492  71.6989499  54.6894261   3.0881396  72.3119457  54.1949216
   1.9628337  72.2569078  55.2061274   0.8299005  74.8210217  45.8209289
   0.7050144  74.0199957  45.3120234   1.4878096  75.3156411  45.3323258
   2.8933913  72.6219237  47.4488839   1.9464249  72.5024588  47.3767165
   3.2416687  71.7341735  47.5315100   3.5014469  73.2400512  44.7358064
   4.4261016  73.0343374  44.5982515   3.3329772  72.9916913  45.6447405
   3.2909785  73.7586180  40.0920155   3.4646662  73.1932602  39.3394007
   3.7838676  74.5587075  39.9099645   9.1449176  66.5222603  41.7110455
   9.5880322  65.7729928  41.3129578   8.2675686  66.5132739  41.3284187
   4.2784957  73.0752944  37.1917053   4.9735862  73.6959637  37.4104368
   4.6208107  72.2248295  37.4669431   6.1776380  70.5252650  38.7204384
   6.7027704  70.8639922  37.9953704   6.0898733  69.5899665  38.5367519
   5.8670286  71.1585553  54.0255582   5.0765830  71.1409692  53.4860081
   5.6303641  71.6973847  54.7804619   5.9868161  68.0078020  51.3388311
   6.0366166  67.8428027  52.2803833   5.8782085  67.1405279  50.9486191
   3.2771924  63.9908948  52.6547617   4.1781787  63.8515413  52.3631615
   3.3519898  64.1563402  53.5945795   7.4886358  70.4274961  51.5830332
   7.1971167  70.7904942  52.4193793   6.8758490  69.7141969  51.4043664
   8.6882041  67.9927841  44.1032902   9.5228932  68.4317645  44.2670463
   8.8241169  67.5166494  43.2841148   5.7373547  65.5507576  50.0510390
   6.2127668  65.7435222  49.2429241   4.8139112  65.6066762  49.8053774
   0.5666357  54.0055702  44.5367121   0.8468111  53.3378891  45.1627547
   1.3516964  54.1984797  44.0241784   4.4375216  62.4273336  48.2838696
   5.3892638  62.5271434  48.3050920   4.2678666  61.6351604  48.7936780
   2.4589595  59.5128919  48.4698097   1.8639527  59.7933932  47.7744585
   2.1739292  60.0022820  49.2414838   1.5897085  73.4651846  37.2300729
   2.5227759  73.3997408  37.4333605   1.5020298  74.3008113  36.7715262
   4.2185102  72.7817716  34.1904677   4.1398734  72.4477580  35.0840435
   5.0394769  73.2739484  34.1896149   6.9163293  65.6479456  47.3980995
   6.8839613  64.7095456  47.5840679   7.5263917  65.7263492  46.6646820
   7.0657782  62.4390499  47.4439279   6.5496830  61.6548956  47.2569207
   7.9497730  62.1109216  47.6085798   4.7268509  56.1831515  43.4035091
   4.5293330  55.8746603  44.2878423   5.3368214  56.9093153  43.5333021
  12.7339843  66.7095462  46.5387032  13.4643232  66.4480751  47.0994735
  12.1246789  65.9724184  46.5789100  10.8155140  64.8503325  47.1361483
  10.0888304  64.7159290  46.5277975  10.4002427  65.1580154  47.9418201
   0.4842155  56.0640421  41.1531623   1.0373194  56.4835875  41.8121646
   0.7212242  55.1376170  41.1954579   3.8620962  58.1740947  40.6610287
   3.2819632  58.8325751  40.2788339   3.5956895  57.3518291  40.2497704
   2.3124529  57.5746004  42.8631607   2.8124307  57.6862539  42.0545926
   2.9560137  57.2707057  43.5032416   2.6445840  60.3341037  39.7166635
   1.7571695  60.6190688  39.4986830   3.0599830  60.1734800  38.8693912
   5.9960377  60.3587558  43.4320974   6.7720767  60.8484010  43.7045591
   5.2708511  60.7845612  43.8892844   8.4332935  61.0715177  44.4894915
   9.0277426  60.8310913  43.7788223   8.5059519  60.3522308  45.1168451
   1.7889054  70.0985712  33.8114655   2.4924904  70.3035714  34.4272311
   1.0651703  70.6662474  34.0763739   2.6186864  65.8495573  39.9316925
   2.5622066  66.3064124  39.0924558   3.1715207  65.0886258  39.7539768
   6.4291670  61.6385305  40.7567045   6.1728604  61.2381940  41.5875252
   5.8044538  62.3529099  40.6317184  10.7404008  64.3781378  43.2638336
  10.1803566  64.4474567  44.0369898  10.1347511  64.2022363  42.5437832
   3.6975751  70.5368241  35.8613115   4.5321355  70.1049439  35.6790590
   3.5360094  70.3650255  36.7890010   3.3521644  67.0400354  37.2269454
   3.2970447  66.8744626  36.2857899   2.7267699  67.7476387  37.3831644
  12.3260026  81.0537892  45.9568292  12.9638436  80.9344639  45.2531632
  12.2080869  82.0018736  46.0156244   9.1349733  81.0065320  45.8929817
   8.7968244  80.8906385  45.0050351  10.0039501  80.6056485  45.8730823
   4.9936548  82.8600796  41.8826707   4.4301414  82.7690733  41.1142995
   4.8788943  82.0400701  42.3629200   9.6169516  82.1600172  51.8516022
   9.6058156  81.7652970  50.9796526   9.7790155  81.4266244  52.4449794
   2.5400980  84.3551988  44.7210928   3.3322272  84.0142813  44.3057227
   2.7797631  84.4646963  45.6413081  10.5736107  86.5271764  37.1941172
   9.9224087  87.1125845  36.8075186  11.3680470  87.0577959  37.2536210
   4.4991734  83.6160901  37.5928307   5.2722610  83.0689888  37.4541183
   4.8517133  84.4805151  37.8042768   6.3376777  84.9437284  50.7995206
   6.0466643  85.8482914  50.6841872   6.9733761  84.9853811  51.5139276
   7.2632984  82.3214132  47.3896566   7.8596556  82.0970155  46.6753529
   7.3207955  81.5798878  47.9922014   6.8358012  79.7753567  35.2246757
   7.0883533  79.2535089  34.4630220   5.8982571  79.6119713  35.3273440
  11.8801295  78.7789346  43.0321500  12.6664384  78.3608769  42.6811917
  12.1439999  79.6835438  43.2003148  12.0511372  84.2162196  37.7310157
  11.4157205  84.2896823  38.4431061  11.7208779  84.8055795  37.0529236
  17.2809722  78.7164579  43.9354478  18.0134894  78.1463796  44.1692308
  16.5249078  78.3286179  44.3760984   6.5554301  81.6781673  37.4271132
   6.4390559  81.0026577  38.0952216   6.6656561  81.1914047  36.6103285
   8.8985842  81.1391821  41.1317821   8.5344049  80.6122441  41.8430742
   9.7552958  80.7490290  40.9584306  14.8035142  72.4286153  48.3949087
  14.4718467  73.2981564  48.1710302  14.2080756  72.1122437  49.0743117
   8.5391329  76.1681720  36.1279169   8.7065731  77.0361957  36.4949640
   8.3488498  76.3309002  35.2040459  11.2966662  84.6298699  47.7945000
  10.9967385  85.5323738  47.6860807  10.9517721  84.3630882  48.6466153
   4.7479143  81.0812496  43.8281704   3.8229640  80.9488710  44.0359396
   4.9963557  81.8606715  44.3251647  14.6963806  77.1481239  45.4742437
  13.7880683  77.0796648  45.1801198  14.6451402  77.6253184  46.3024263
   8.5180550  78.6239378  37.1125836   8.3980175  79.0696428  37.9511316
   7.8233138  78.9724695  36.5539374   2.1087954  80.7245769  44.6625493
   2.2380336  80.9780248  45.5764905   1.4285406  81.3173477  44.3430148
   6.2787442  91.3943019  40.7615967   6.2011471  92.3450845  40.8404448
   5.6749085  91.0488892  41.4190894   8.7704671  78.5670885  53.4177334
   7.9938006  79.1264805  53.4080199   9.4095235  79.0527668  53.9392204
  16.5625452  75.3497678  47.2520311  15.9199832  75.6430211  46.6060106
  16.0580381  75.2350598  48.0573508  14.2165616  79.0960851  37.9406170
  15.1283472  79.3288238  37.7653868  13.7075263  79.6797895  37.3781249
   7.0251044  81.3756338  52.9795301   7.7665728  81.9141382  52.7030125
   6.3188029  82.0022627  53.1366853  12.5006383  83.5185479  51.5767463
  12.9089739  83.0767889  50.8322095  11.7783645  82.9438106  51.8301656
   8.8537453  78.4558085  48.9501020   9.6998649  78.8797499  49.0935669
   8.7936091  77.7991710  49.6439583  12.8235198  84.0786669  45.3319752
  12.1944061  84.2432383  44.6295820  12.4360860  84.4928279  46.1030716
  16.7024430  85.0141107  42.6864115  16.0175468  85.3940009  42.1361149
  16.7868279  85.6236434  43.4196063  12.0036899  76.1162454  50.6082193
  11.7597831  76.8704514  50.0716469  12.2796829  76.4947801  51.4429440
  13.9575362  82.6601066  49.2859459  14.1692257  83.3032826  48.6093840
  13.9105110  81.8263383  48.8181389  11.5601591  75.2718887  46.1896031
  10.6986070  75.5700140  46.4812769  11.5864025  75.4889286  45.2577064
   8.3763160  83.8161077  42.5969837   8.8401506  84.0948780  41.8074459
   8.1119958  82.9144522  42.4142927   5.2687241  83.3632559  45.5349600
   5.8388598  83.7919827  44.8967085   5.8595353  83.0815144  46.2333786
   7.3132046  79.9384230  39.4059402   8.0156089  80.3905273  39.8733328
   6.9812675  79.2968049  40.0339295   5.7612408  78.5295986  53.7810611
   5.1311068  79.2112267  54.0146008   5.6548495  78.4179068  52.8363750
  15.0721190  85.5373022  47.4581816  15.8938633  85.1353209  47.1764498
  15.0683592  85.4341256  48.4097932   3.0072125  78.5612362  41.6660012
   2.2103289  78.6731056  42.1843508   2.7797718  78.8999014  40.8000903
   8.8377793  85.0857065  49.6142527   8.9022226  85.5477472  50.4500699
   8.1288717  84.4554430  49.7424837  23.1627183  81.8811770  43.8066788
  22.4090891  81.3119168  43.6510792  23.2974724  81.8474435  44.7537423
   8.5525811  86.7525172  39.4821507   8.4171485  87.5976708  39.9106355
   9.0935623  86.9544450  38.7187441   5.0393150  72.8316752  56.1435862
   4.6460096  72.2782951  56.8183507   5.8559291  73.1427331  56.5342380
   2.0055208  84.2700610  40.0549432   2.5179729  85.0643861  40.2054997
   2.6577921  83.5726901  39.9883034   3.8150093  87.3866367  42.1372185
   3.9916721  88.3084331  41.9493169   4.6106926  87.0724786  42.5666565
   7.9561111  74.2474631  53.7356119   8.6970825  74.8481784  53.6560581
   8.1879034  73.5052269  53.1774162   3.1002449  79.4330999  52.0134349
   2.9855964  78.5316256  52.3141448   2.2446967  79.6794695  51.6619165
  10.1794287  87.3748739  53.6121849   9.7358141  86.5885117  53.2942754
  10.8411501  87.5627889  52.9465740   4.9381408  88.9044541  48.1382528
   5.4888833  88.7761604  47.3659522   4.0992884  89.2039430  47.7877421
  12.2775525  87.6551539  51.6403251  12.2594000  88.4760420  51.1483520
  13.1995445  87.5305614  51.8653392   8.7348579  85.1695668  52.4826759
   9.2676916  84.4083957  52.2526067   8.2062660  84.8769320  53.2250913
  11.9018274  70.2755734  48.0120401  11.5582544  71.1657376  47.9359511
  12.2697237  70.0857392  47.1489986  11.8668557  80.2664345  36.5192836
  11.3515180  81.0368950  36.7581223  11.5945865  79.5929482  37.1425897
   9.4515668  75.1114046  41.5778074   8.5957264  74.7220897  41.3983713
   9.8642620  75.1906007  40.7177860  10.9814815  72.6460389  45.9769634
  10.4779610  72.6090525  45.1637439  11.2745421  73.5553132  46.0366291
   7.2257700  72.7299119  44.9835816   8.0910697  72.5341928  44.6241705
   7.2935209  72.5009471  45.9105172  16.8402831  83.0196700  38.4546009
  16.0632274  82.6807860  38.0101171  17.5194312  83.0249323  37.7800974
  11.6554860  78.1391437  38.3452617  11.3504996  78.4537587  39.1962760
  12.6085302  78.2172857  38.3879950  10.1001292  84.2981661  39.9945571
   9.5722654  83.5634420  39.6818808   9.5988795  85.0756337  39.7485539
  15.0794138  82.4930681  45.1112617  14.4217812  83.1829943  45.1992746
  15.8834537  82.8827113  45.4546604   4.8320020  74.9601327  42.3552182
   5.4063771  74.7376509  41.6225375   5.4191002  75.0290022  43.1080784
  13.8899597  80.8475054  43.1616559  14.4031479  81.4805046  43.6638269
  14.5400821  80.2476249  42.7959919   5.1589607  76.9905788  36.3748068
   4.3226919  77.3280475  36.6957342   5.0194376  76.8554768  35.4375205
   7.1342687  71.8342576  41.0827252   6.4807100  71.5191593  40.4583867
   7.0923161  71.2118316  41.8087075   8.2453892  82.1161871  32.9980544
   7.3380954  81.8851125  33.1971693   8.7424924  81.3199490  33.1854525
  11.1521971  90.8259378  35.9177230  10.4783670  91.1291075  36.5262188
  11.5387793  91.6288459  35.5682687  10.3680428  78.3224510  45.4074899
   9.4502989  78.5439457  45.2496588  10.7840571  78.3970820  44.5486607
  11.1515475  79.7215925  40.5377580  11.8987294  80.2337322  40.2284702
  11.4207065  79.3999978  41.3981973   9.4242126  82.2174466  37.5204534
   8.5153345  81.9333499  37.6177004   9.4537209  82.6373545  36.6607841
  14.6561393  85.8281055  41.2895702  14.2023720  84.9871965  41.3460892
  14.0255360  86.4642454  41.6270482  13.5994313  76.7573041  42.5196369
  12.8617069  76.2450428  42.8506612  13.8521086  76.3173423  41.7079646
  13.0994332  87.6657552  42.2245520  13.3917307  88.2262609  41.5057885
  13.6092953  87.9586113  42.9798679  13.7005940  69.5349293  43.1138138
  14.0064817  68.6746657  42.8264053  14.4258545  70.1266914  42.9137132
   7.9727020  79.8303087  43.6214329   8.0275629  78.8776923  43.5456806
   7.1618222  79.9862526  44.1055628   9.1218213  83.7583210  34.8592613
   8.6837643  83.0419069  34.3998250   9.8628654  83.9859324  34.2977704
   5.9119380  78.4480146  41.3804708   5.0987245  78.7474317  41.7869900
   6.4078374  78.0535835  42.0979190   8.0627957  88.4437903  43.3138973
   8.0204136  88.6698750  42.3847505   8.9790656  88.2101278  43.4624774
  11.5093591  78.9121971  50.2119602  11.8642979  79.1393444  51.0714068
  12.1565722  79.2440348  49.5896857  17.2391328  82.0340407  40.9168931
  17.1009227  82.2242003  39.9890120  16.8827547  82.7959789  41.3736982
   5.4033454  76.0198502  46.9965943   6.0432834  75.8787261  46.2988907
   4.5710985  75.7333015  46.6204545  17.2660708  84.1016934  45.9280203
  17.6997214  84.0092223  46.7763257  17.9792288  84.0774434  45.2900219
   6.1793758  85.3200932  43.1100936   6.9734357  84.8251252  42.9083511
   5.4685451  84.7918795  42.7468641  10.9988603  87.7019028  47.4613303
  11.0525625  88.2709964  48.2291019  10.1303384  87.8720913  47.0967340
   2.4876522  79.4644014  39.1860688   1.5574110  79.4028469  39.4030650
   2.5833994  78.9419967  38.3897330   2.4062071  75.9898827  41.7738930
   2.6668888  76.9044160  41.6648090   3.2279243  75.5223269  41.9235543
   3.8786996  77.4036584  48.9437755   4.5510049  77.1953946  48.2950403
   3.0516783  77.2058670  48.5042987  18.1276257  84.1440634  48.4613088
  18.3212147  85.0486445  48.7072363  18.0276875  83.6848053  49.2951673
   9.7812568  74.0298525  50.9603415   9.1340483  74.7288475  50.8667892
  10.5513583  74.4634669  51.3279664  13.1891366  84.2947377  54.0353969
  13.0376872  84.0657929  53.1184052  13.1796045  85.2517978  54.0485314
   9.9576702  81.8679290  49.0200235  10.8868762  82.0190449  48.8469202
   9.5367732  81.9563311  48.1648882   8.7565034  85.8929954  46.7898773
   8.6176120  85.5248739  47.6624711   7.9679630  86.4077594  46.6182731
   9.3513186  90.9939051  38.1324309   9.5264942  90.5227094  38.9469932
   8.6645974  91.6204817  38.3605570  10.3070249  85.2711557  44.1787611
   9.9720082  85.2312327  45.0745260   9.8074195  84.6056273  43.7058021
   4.2814493  80.6779187  49.7040192   4.1434291  79.9459426  50.3051731
   5.1919417  80.5888087  49.4224379  13.2429441  82.6167591  34.4524670
  12.6258612  81.8914419  34.3557723  12.7745929  83.3776952  34.1091744
   6.9096794  80.3899146  49.1923871   7.6196412  79.7492338  49.1510490
   6.8666102  80.6412041  50.1150052  14.8983573  87.3266500  52.1130451
  14.8396119  86.6425720  51.4461034  15.3003091  88.0685490  51.6611077
   5.6225728  77.3764364  51.0119511   5.0863085  76.9255103  51.6641107
   5.0342436  77.5110273  50.2689975   3.9174271  94.1428413  44.9064169
   4.1570870  94.7746938  45.5843188   3.0743468  93.7916453  45.1929529
   5.0327987  76.8353016  33.5745974   4.1557453  76.7141816  33.2108221
   5.5085740  76.0439094  33.3224863  14.9000980  85.2906084  50.3444430
  14.0127759  84.9532005  50.4670829  15.4699531  84.5589115  50.5813196
   1.3564849  76.5120372  48.0972505   1.2723038  75.9046041  47.3622915
   0.5347556  77.0029390  48.0982002   8.4302133  89.9507536  47.3105673
   8.3572305  90.7562507  47.8224978   7.9879526  90.1499502  46.4853695
   8.2191913  89.1879306  40.8208495   7.4359435  89.7300986  40.9146719
   8.9184658  89.7053286  41.2202736  11.5288563  74.9973935  43.4642700
  12.0257263  74.2443898  43.1443771  10.7575545  75.0338252  42.8985910
  19.3818320  80.7014301  45.1060992  19.3708197  81.5839016  44.7354925
  18.5135700  80.3485852  44.9115529  10.8900817  89.8494370  49.4663832
  11.6028789  90.4841835  49.3939734  10.3990845  89.9458236  48.6503834
  12.6118344  83.7545623  41.0381124  11.6774622  83.8747085  40.8685828
  12.7895012  82.8518089  40.7741134   8.1123532  77.1391318  43.1914385
   7.7421319  76.5862359  43.8795291   8.6082624  76.5349452  42.6389385
  15.9990895  79.5962942  41.5731158  16.4651347  80.4290933  41.4991461
  16.4498396  79.1307923  42.2776416   5.9412730  87.5988813  50.2869403
   6.6422190  88.2325296  50.4398797   5.4707845  87.9403545  49.5265042
  14.0667126  85.9406763  38.5717310  14.3426970  85.8263358  39.4811184
  13.1971625  85.5424248  38.5329483  13.9707558  71.9643529  45.6122059
  13.0570638  72.1947756  45.7804266  14.4000659  72.0481973  46.4636092
  13.7414016  80.1533421  48.1121953  13.0885467  80.4009328  47.4574406
  14.1194396  79.3397559  47.7784431  10.7021190  90.1893114  42.2150124
  10.8843585  89.3714770  42.6777876  11.5254176  90.4060806  41.7775014
  11.0363356  89.1161299  39.4765172  11.5651122  88.6053754  38.8635334
  11.2991575  88.8003829  40.3410705   9.7901589  80.8953232  54.5987990
   9.1142226  80.7947361  55.2690366  10.6129223  80.7392446  55.0623988
   1.5380448  87.1325168  47.2200506   2.1233885  86.3868856  47.3528410
   1.3405287  87.4429125  48.1037169   4.3919104  90.1676416  42.2362948
   3.7229479  90.6522543  41.7526988   4.2531973  90.4145636  43.1506327
   8.5324372  92.2020159  48.8345606   9.0842680  92.3651781  49.5994692
   8.8730566  92.7924597  48.1625631   3.5088865  74.5495309  49.4367491
   3.5730192  75.4110140  49.0244889   3.4455986  73.9369311  48.7039850
   2.9841138  76.6218442  53.0840525   3.6113177  76.2395519  53.6978050
   2.1269057  76.4032644  53.4496218  13.3835247  87.0281417  54.6894261
  13.9275151  87.6411375  54.1949216  12.8022091  87.5860995  55.2061274
  11.6692760  90.1502135  45.8209289  11.5443899  89.3491875  45.3120234
  12.3271851  90.6448328  45.3323258   3.2900928  76.5050867  44.9986429
   2.5687513  77.1186835  44.8593902   4.0794184  77.0408632  44.9203075
  13.7327668  87.9511155  47.4488839  12.7858003  87.8316506  47.3767165
  14.0810441  87.0633653  47.5315100   6.0927241  73.8405294  51.2727080
   6.6161643  74.0867590  52.0353390   5.8739575  74.6725329  50.8530218
   1.4894522  76.1108968  39.1398205   1.1607228  75.2306347  38.9573311
   1.8433893  76.0556637  40.0274595  10.7374101  87.7463871  43.6493191
  10.5899064  86.8180579  43.8300761  11.5627595  87.7683962  43.1650266
   4.6036345  76.3981938  39.5073683   4.9432418  76.9267860  38.7852291
   5.0508466  76.7362344  40.2832250  14.3408223  88.5692430  44.7358064
  15.2654771  88.3635291  44.5982515  14.1723526  88.3208831  45.6447405
   7.2979786  74.7818989  48.9576751   6.9576607  73.9826802  49.3597431
   6.5918793  75.0820700  48.3853584   7.9496258  71.8668301  47.4104074
   8.7722327  71.3928780  47.2882964   8.1934322  72.6458785  47.9102760
   6.5904493  74.8956560  37.7066976   7.3112855  75.2737813  37.2030693
   5.9669797  75.6145437  37.8101954  10.7335616  75.6001709  38.6425308
  10.9499230  76.4826347  38.3414136  10.2529683  75.2087922  37.9130950
   5.4734837  78.5587422  45.2196053   5.3279418  78.8727725  46.1120334
   4.9960041  79.1772322  44.6666951   7.3331220  75.5489970  45.2676942
   7.3192789  74.6531063  44.9309240   8.0503648  75.5560634  45.9015228
   9.1857350  75.9827310  47.3130070   8.9275128  76.9044381  47.3114400
   8.6542391  75.5857745  48.0030534  14.1303539  89.0878097  40.0920155
  14.3040417  88.5224520  39.3394007  14.6232430  89.8878992  39.9099645
   6.7368116  74.4304350  40.5364512   6.8584027  73.5020996  40.7355400
   6.4470158  74.4443036  39.6242828   9.6059306  72.1159261  43.6731232
   9.6281003  72.1798594  42.7183212  10.0227365  71.2763769  43.8671738
  19.9842930  81.8514520  41.7110455  20.4274076  81.1021846  41.3129578
  19.1069441  81.8424657  41.3284187  15.1178712  88.4044862  37.1917053
  15.8129616  89.0251554  37.4104368  15.4601862  87.5540213  37.4669431
  17.0170135  85.8544567  38.7204384  17.5421459  86.1931840  37.9953704
  16.9292487  84.9191583  38.5367519   8.6790184  89.7678641  50.8494261
   8.9877310  89.5227788  51.7216960   9.4765666  89.9725279  50.3613131
   8.7010796  91.9216551  43.0799637   8.2615786  91.4292929  43.7732494
   9.4518913  91.3789518  42.8391712   1.1803135  88.1128091  43.0824265
   2.0061154  87.8131863  42.7022909   0.8297187  87.3435714  43.5314054
   6.1484668  87.4654560  45.1521939   5.5264677  86.8025265  44.8524167
   6.8189535  87.4915692  44.4695587   6.2209195  75.9436348  54.7454445
   6.2697351  76.8198470  54.3632215   6.7631709  75.4013741  54.1726088
  16.7064041  86.4877471  54.0255582  15.9159585  86.4701610  53.4860081
  16.4697395  87.0265765  54.7804619  16.8261916  83.3369937  51.3388311
  16.8759921  83.1719945  52.2803833  16.7175839  82.4697196  50.9486191
   5.7098175  86.0158483  38.6280399   5.8586295  86.6993947  37.9747072
   6.5164618  85.9963573  39.1429855  14.1165678  79.3200865  52.6547617
  15.0175541  79.1807330  52.3631615  14.1913653  79.4855320  53.5945795
   8.4508484  76.6967720  51.5000804   7.5811793  76.9901286  51.2283392
   8.6867964  77.2808165  52.2208067  18.3280113  85.7566879  51.5830332
  18.0364921  86.1196859  52.4193793  17.7152244  85.0433887  51.4043664
  19.5275795  83.3219759  44.1032902  20.3622687  83.7609563  44.2670463
  19.6634924  82.8458412  43.2841148  16.5767301  80.8799493  50.0510390
  17.0521423  81.0727140  49.2429241  15.6532866  80.9358679  49.8053774
   3.4650808  82.0423661  39.6341468   3.2196850  81.1385991  39.8321679
   3.6346722  82.0440811  38.6920946  11.1547518  72.9147337  49.0166224
  11.6729461  73.6508364  48.6912713  10.8002650  73.2211330  49.8512983
   2.7346455  77.7752018  37.1327630   2.0415700  77.8496373  36.4767666
   2.4898207  77.0112362  37.6549147  11.4060112  69.3347620  44.5367121
  11.6861865  68.6670809  45.1627547  12.1910719  69.5276715  44.0241784
   9.2093580  88.5106613  36.0992147   8.6367547  89.1296801  35.6462619
   9.7826374  89.0605975  36.6332069  15.2768970  77.7565254  48.2838696
  16.2286393  77.8563351  48.3050920  15.1072420  76.9643522  48.7936780
  13.2983350  74.8420837  48.4698097  12.7033282  75.1225849  47.7744585
  13.0133046  75.3314738  49.2414838  12.4290840  88.7943764  37.2300729
  13.3621513  88.7289325  37.4333605  12.3414053  89.6300030  36.7715262
  15.0578857  88.1109634  34.1904677  14.9792488  87.7769498  35.0840435
  15.8788523  88.6031402  34.1896149  17.7557048  80.9771373  47.3980995
  17.7233368  80.0387374  47.5840679  18.3657671  81.0555410  46.6646820
   9.5940379  79.8467426  33.4408199  10.5399483  79.7173634  33.5096617
   9.2154624  79.1082088  33.9177628  15.5662263  71.5123432  43.4035091
  15.3687084  71.2038520  44.2878423  16.1761969  72.2385071  43.5333021
  23.5733598  82.0387380  46.5387032  24.3036986  81.7772668  47.0994735
  22.9640543  81.3016102  46.5789100  21.6548895  80.1795243  47.1361483
  20.9282058  80.0451208  46.5277975  21.2396182  80.4872071  47.9418201
   9.4779071  83.8985172  54.9008856  10.3982081  84.0763771  55.0948903
   9.4428654  82.9541218  54.7488556   7.7783296  77.7717403  33.3763085
   6.8714751  77.4750515  33.4525798   8.0559277  77.4747221  32.5097371
   2.4741144  81.8086207  47.5431638   2.6927154  82.7403315  47.5619671
   2.8866918  81.4494181  48.3286441   9.3945362  72.3154292  39.5307326
   8.5846090  71.9701377  39.9062572  10.0829778  72.0061836  40.1194937
  11.3235910  71.3932339  41.1531623  11.8766948  71.8127793  41.8121646
  11.5605996  70.4668087  41.1954579   7.3469009  77.3819413  56.9334386
   7.2465736  78.3313770  56.8646478   7.1290551  77.0537652  56.0610457
   6.5482080  74.6304338  33.5175064   7.4101244  74.9559236  33.7770881
   6.7332425  73.8435834  33.0048130  14.7014717  73.5032864  40.6610287
  14.1213386  74.1617668  40.2788339  14.4350650  72.6810209  40.2497704
  13.1518283  72.9037922  42.8631607  13.6518062  73.0154457  42.0545926
  13.7953891  72.5998975  43.5032416   7.2100279  80.8116552  55.7499448
   6.7267361  81.6116912  55.9563337   7.2961218  80.8224496  54.7966892
   0.4786239  82.6444931  43.6721267   0.4556927  82.7432619  42.7203151
   0.7886875  83.4910082  43.9938434   3.1373617  84.7021086  47.7867882
   4.0916870  84.6705029  47.7197813   2.9386140  84.2411710  48.6018108
   3.7272999  83.2722202  50.3538680   4.5465888  83.7666281  50.3773517
   4.0009806  82.3554170  50.3256247  13.4839595  75.6632955  39.7166635
  12.5965450  75.9482605  39.4986830  13.8993584  75.5026718  38.8693912
  16.8354131  75.6879476  43.4320974  17.6114521  76.1775928  43.7045591
  16.1102265  76.1137530  43.8892844  19.2726690  76.4007095  44.4894915
  19.8671181  76.1602831  43.7788223  19.3453273  75.6814225  45.1168451
   1.4923845  90.2440706  44.8038080   1.3578313  89.4841107  44.2376078
   1.0755908  90.9681606  44.3366869  12.6282808  85.4277629  33.8114655
  13.3318659  85.6327632  34.4272311  11.9045457  85.9954391  34.0763739
  13.4580619  81.1787491  39.9316925  13.4015820  81.6356042  39.0924558
  14.0108961  80.4178175  39.7539768  17.2685425  76.9677222  40.7567045
  17.0122359  76.5673858  41.5875252  16.6438293  77.6821016  40.6317184
  21.5797762  79.7073296  43.2638336  21.0197320  79.7766485  44.0369898
  20.9741266  79.5314280  42.5437832   4.6492971  91.1410023  45.0156522
   4.5325355  92.0855455  44.9135213   3.8285418  90.8383584  45.4042322
  14.5369506  85.8660159  35.8613115  15.3715110  85.4341357  35.6790590
  14.3753849  85.6942172  36.7890010  14.1915398  82.3692272  37.2269454
  14.1364202  82.2036543  36.2857899  13.5661453  83.0768305  37.3831644
  11.5061305  84.6741184  56.5523017  12.3752465  84.8481836  56.1909652
  11.0268057  85.4935601  56.4298747   7.5011523  71.8700381  36.8054773
   7.4890193  72.8142221  36.9623044   8.3934945  71.6870526  36.5114234
   5.6747485  91.7938285  48.2312451   6.5774732  91.8261895  48.5478946
   5.4484855  90.8638736  48.2458787   7.4301087  90.5469271  44.8922529
   6.4796718  90.5471133  44.7786902   7.7333574  89.8002006  44.3758564
  11.3163643  68.4643157  41.0600710  10.5496039  67.9101644  41.2057392
  11.7274348  68.5365026  41.9214861   3.3205404  74.7527953  55.1505891
   4.1836866  74.3964758  55.3609215   2.7470815  74.4141848  55.8381295
  23.1653781  96.3829810  45.9568292  23.8032191  96.2636557  45.2531632
  23.0474624  97.3310654  46.0156244  19.9743487  96.3357238  45.8929817
  19.6361999  96.2198302  45.0050351  20.8433255  95.9348403  45.8730823
  15.8330303  98.1892714  41.8826707  15.2695168  98.0982651  41.1142995
  15.7182698  97.3692619  42.3629200  20.4563270  97.4892089  51.8516022
  20.4451911  97.0944888  50.9796526  20.6183910  96.7558162  52.4449794
  13.3794735  99.6843906  44.7210928  14.1716027  99.3434730  44.3057227
  13.6191385  99.7938881  45.6413081  21.4129862 101.8563682  37.1941172
  20.7617841 102.4417762  36.8075186  22.2074224 102.3869877  37.2536210
  15.3385489  98.9452819  37.5928307  16.1116365  98.3981806  37.4541183
  15.6910888  99.8097068  37.8042768  17.1770531 100.2729201  50.7995206
  16.8860397 101.1774832  50.6841872  17.8127516 100.3145729  51.5139276
  18.1026738  97.6506050  47.3896566  18.6990310  97.4262072  46.6753529
  18.1601710  96.9090795  47.9922014  17.6751767  95.1045485  35.2246757
  17.9277287  94.5827006  34.4630220  16.7376326  94.9411631  35.3273440
  22.7195049  94.1081263  43.0321500  23.5058139  93.6900687  42.6811917
  22.9833754  95.0127356  43.2003148  22.8905127  99.5454114  37.7310157
  22.2550960  99.6188740  38.4431061  22.5602533 100.1347713  37.0529236
  28.1203477  94.0456497  43.9354478  28.8528648  93.4755713  44.1692308
  27.3642832  93.6578097  44.3760984  17.3948055  97.0073591  37.4271132
  17.2784313  96.3318494  38.0952216  17.5050315  96.5205965  36.6103285
  19.7379596  96.4683738  41.1317821  19.3737803  95.9414359  41.8430742
  20.5946712  96.0782207  40.9584306  25.6428897  87.7578071  48.3949087
  25.3112222  88.6273482  48.1710302  25.0474510  87.4414355  49.0743117
  19.3785083  91.4973638  36.1279169  19.5459486  92.3653874  36.4949640
  19.1882252  91.6600920  35.2040459  22.1360416  99.9590617  47.7945000
  21.8361140 100.8615656  47.6860807  21.7911476  99.6922800  48.6466153
  15.5872898  96.4104414  43.8281704  14.6623394  96.2780628  44.0359396
  15.8357311  97.1898633  44.3251647  25.5357560  92.4773157  45.4742437
  24.6274438  92.4088565  45.1801198  25.4845156  92.9545102  46.3024263
  19.3574304  93.9531295  37.1125836  19.2373929  94.3988346  37.9511316
  18.6626892  94.3016613  36.5539374  12.9481709  96.0537687  44.6625493
  13.0774090  96.3072166  45.5764905  12.2679160  96.6465395  44.3430148
  19.6098426  93.8962803  53.4177334  18.8331760  94.4556723  53.4080199
  20.2488989  94.3819586  53.9392204  27.4019207  90.6789595  47.2520311
  26.7593587  90.9722129  46.6060106  26.8974135  90.5642516  48.0573508
  25.0559370  94.4252769  37.9406170  25.9677226  94.6580155  37.7653868
  24.5469017  95.0089813  37.3781249  17.8644798  96.7048256  52.9795301
  18.6059483  97.2433300  52.7030125  17.1581784  97.3314545  53.1366853
  23.3400138  98.8477396  51.5767463  23.7483494  98.4059807  50.8322095
  22.6177399  98.2730024  51.8301656  19.6931208  93.7850003  48.9501020
  20.5392403  94.2089417  49.0935669  19.6329846  93.1283627  49.6439583
  23.6628953  99.4078587  45.3319752  23.0337815  99.5724301  44.6295820
  23.2754615  99.8220197  46.1030716  27.5418184 100.3433025  42.6864115
  26.8569223 100.7231926  42.1361149  27.6262034 100.9528352  43.4196063
  22.8430653  91.4454372  50.6082193  22.5991585  92.1996432  50.0716469
  23.1190584  91.8239719  51.4429440  24.7969116  97.9892984  49.2859459
  25.0086011  98.6324744  48.6093840  24.7498864  97.1555300  48.8181389
  22.3995345  90.6010805  46.1896031  21.5379824  90.8992058  46.4812769
  22.4257780  90.8181203  45.2577064  19.2156914  99.1452995  42.5969837
  19.6795260  99.4240698  41.8074459  18.9513713  98.2436440  42.4142927
  16.1080996  98.6924477  45.5349600  16.6782353  99.1211745  44.8967085
  16.6989107  98.4107061  46.2333786  18.1525801  95.2676147  39.4059402
  18.8549844  95.7197191  39.8733328  17.8206429  94.6259966  40.0339295
  16.6006162  93.8587904  53.7810611  15.9704823  94.5404185  54.0146008
  16.4942250  93.7470986  52.8363750  11.8951134  93.5259700  44.7076536
  11.1050188  93.7817229  44.2316646  12.3862382  94.3408038  44.8128576
  25.9114944 100.8664939  47.4581816  26.7332388 100.4645127  47.1764498
  25.9077347 100.7633173  48.4097932  13.8465880  93.8904279  41.6660012
  13.0497043  94.0022974  42.1843508  13.6191472  94.2290932  40.8000903
  19.6771547 100.4148983  49.6142527  19.7415980 100.8769390  50.4500699
  18.9682471  99.7846348  49.7424837  10.1788837  93.7790191  47.1391526
  10.4296876  94.6637200  47.4049102  10.7148386  93.5994792  46.3666618
  34.0020937  97.2103688  43.8066788  33.2484645  96.6411086  43.6510792
  34.1368478  97.1766352  44.7537423  19.3919565 102.0817090  39.4821507
  19.2565240 102.9268626  39.9106355  19.9329378 102.2836368  38.7187441
  15.8786905  88.1608670  56.1435862  15.4853850  87.6074868  56.8183507
  16.6953045  88.4719248  56.5342380  12.8448963  99.5992528  40.0549432
  13.3573483 100.3935778  40.2054997  13.4971675  98.9018819  39.9883034
  14.6543847 102.7158284  42.1372185  14.8310476 103.6376249  41.9493169
  15.4500681 102.4016704  42.5666565  18.7954866  89.5766549  53.7356119
  19.5364579  90.1773702  53.6560581  19.0272789  88.8344187  53.1774162
  13.9396204  94.7622916  52.0134349  13.8249719  93.8608174  52.3141448
  13.0840722  95.0086613  51.6619165  21.0188042 102.7040657  53.6121849
  20.5751896 101.9177035  53.2942754  21.6805255 102.8919807  52.9465740
  23.1169280 102.9843457  51.6403251  23.0987755 103.8052338  51.1483520
  24.0389200 102.8597532  51.8653392  19.5742334 100.4987586  52.4826759
  20.1070671  99.7375874  52.2526067  19.0456415 100.2061238  53.2250913
  22.7412029  85.6047652  48.0120401  22.3976298  86.4949294  47.9359511
  23.1090991  85.4149310  47.1489986  10.8097879  97.9281182  40.8309003
  11.6473101  98.3378191  40.6142711  10.9876147  96.9880625  40.8009197
  22.7062311  95.5956263  36.5192836  22.1908935  96.3660868  36.7581223
  22.4339620  94.9221399  37.1425897  20.2909422  90.4405964  41.5778074
  19.4351019  90.0512814  41.3983713  20.7036374  90.5197925  40.7177860
  21.8208569  87.9752307  45.9769634  21.3173365  87.9382442  45.1637439
  22.1139176  88.8845050  46.0366291  18.0651455  88.0591037  44.9835816
  18.9304452  87.8633846  44.6241705  18.1328964  87.8301389  45.9105172
  27.6796586  98.3488618  38.4546009  26.9026028  98.0099777  38.0101171
  28.3588067  98.3541241  37.7800974  22.4948615  93.4683355  38.3452617
  22.1898750  93.7829504  39.1962760  23.4479057  93.5464775  38.3879950
  20.9395046  99.6273578  39.9945571  20.4116408  98.8926338  39.6818808
  20.4382549 100.4048255  39.7485539  25.9187892  97.8222599  45.1112617
  25.2611567  98.5121860  45.1992746  26.7228292  98.2119031  45.4546604
  15.6713774  90.2893245  42.3552182  16.2457526  90.0668426  41.6225375
  16.2584756  90.3581939  43.1080784  24.7293351  96.1766972  43.1616559
  25.2425233  96.8096964  43.6638269  25.3794575  95.5768167  42.7959919
  15.9983361  92.3197706  36.3748068  15.1620673  92.6572392  36.6957342
  15.8588131  92.1846686  35.4375205  17.9736442  87.1634494  41.0827252
  17.3200854  86.8483511  40.4583867  17.9316916  86.5410234  41.8087075
  19.0847647  97.4453789  32.9980544  18.1774708  97.2143042  33.1971693
  19.5818679  96.6491408  33.1854525  21.2074182  93.6516427  45.4074899
  20.2896743  93.8731374  45.2496588  21.6234326  93.7262738  44.5486607
  21.9909230  95.0507843  40.5377580  22.7381049  95.5629240  40.2284702
  22.2600819  94.7291896  41.3981973  20.2635880  97.5466384  37.5204534
  19.3547099  97.2625416  37.6177004  20.2930964  97.9665462  36.6607841
  25.4955147 101.1572973  41.2895702  25.0417475 100.3163883  41.3460892
  24.8649114 101.7934371  41.6270482  24.4388067  92.0864959  42.5196369
  23.7010824  91.5742345  42.8506612  24.6914841  91.6465341  41.7079646
  23.9388087 102.9949470  42.2245520  24.2311061 103.5554527  41.5057885
  24.4486707 103.2878031  42.9798679  24.5399694  84.8641211  43.1138138
  24.8458571  84.0038575  42.8264053  25.2652299  85.4558831  42.9137132
  10.8324050  95.2671898  41.5019736  10.6348450  94.6741258  40.7770803
  10.2770714  94.9624108  42.2195675  18.8120774  95.1595004  43.6214329
  18.8669384  94.2068841  43.5456806  18.0011976  95.3154443  44.1055628
  19.9611968  99.0875127  34.8592613  19.5231398  98.3710986  34.3998250
  20.7022409  99.3151242  34.2977704  16.7513134  93.7772064  41.3804708
  15.9381000  94.0766235  41.7869900  17.2472128  93.3827753  42.0979190
  18.9021712 103.7729821  43.3138973  18.8597891 103.9990667  42.3847505
  19.8184411 103.5393195  43.4624774  22.3487346  94.2413888  50.2119602
  22.7036733  94.4685362  51.0714068  22.9959477  94.5732265  49.5896857
  28.0785083  97.3632324  40.9168931  27.9402981  97.5533920  39.9890120
  27.7221301  98.1251707  41.3736982  16.2427209  91.3490419  46.9965943
  16.8826588  91.2079179  46.2988907  15.4104739  91.0624933  46.6204545
  28.1054462  99.4308851  45.9280203  28.5390969  99.3384140  46.7763257
  28.8186043  99.4066352  45.2900219  17.0187513 100.6492850  43.1100936
  17.8128111 100.1543170  42.9083511  16.3079205 100.1210713  42.7468641
  21.8382357 103.0310945  47.4613303  21.8919379 103.6001882  48.2291019
  20.9697139 103.2012830  47.0967340  13.3270276  94.7935932  39.1860688
  12.3967864  94.7320387  39.4030650  13.4227748  94.2711884  38.3897330
  13.2455825  91.3190744  41.7738930  13.5062643  92.2336078  41.6648090
  14.0672998  90.8515187  41.9235543  14.7180751  92.7328502  48.9437755
  15.3903804  92.5245864  48.2950403  13.8910537  92.5350588  48.5042987
  28.9670012  99.4732552  48.4613088  29.1605902 100.3778362  48.7072363
  28.8670630  99.0139971  49.2951673  20.6206323  89.3590443  50.9603415
  19.9734238  90.0580392  50.8667892  21.3907338  89.7926586  51.3279664
  24.0285120  99.6239295  54.0353969  23.8770627  99.3949846  53.1184052
  24.0189800 100.5809896  54.0485314  20.7970457  97.1971207  49.0200235
  21.7262517  97.3482367  48.8469202  20.3761487  97.2855228  48.1648882
  19.5958789 101.2221872  46.7898773  19.4569874 100.8540656  47.6624711
  18.8073385 101.7369511  46.6182731  21.1464004 100.6003475  44.1787611
  20.8113836 100.5604245  45.0745260  20.6467950  99.9348191  43.7058021
  15.1208248  96.0071105  49.7040192  14.9828046  95.2751343  50.3051731
  16.0313171  95.9180005  49.4224379  24.0823195  97.9459509  34.4524670
  23.4652366  97.2206337  34.3557723  23.6139684  98.7068869  34.1091744
  17.7490548  95.7191064  49.1923871  18.4590167  95.0784256  49.1510490
  17.7059857  95.9703959  50.1150052  25.7377327 102.6558417  52.1130451
  25.6789873 101.9717637  51.4461034  26.1396846 103.3977407  51.6611077
  16.4619482  92.7056282  51.0119511  15.9256839  92.2547020  51.6641107
  15.8736191  92.8402191  50.2689975  15.8721741  92.1644933  33.5745974
  14.9951208  92.0433734  33.2108221  16.3479494  91.3731012  33.3224863
  25.7394734 100.6198001  50.3444430  24.8521513 100.2823923  50.4670829
  26.3093285  99.8881032  50.5813196   7.3923882  96.9522093  43.6687482
   8.0794921  96.6383823  43.0808497   7.2372010  97.8563458  43.3954733
  12.1958604  91.8412290  48.0972505  12.1116792  91.2337959  47.3622915
  11.3741310  92.3321308  48.0982002  19.0585667 104.5171224  40.8208495
  18.2753189 105.0592904  40.9146719  19.7578413 105.0345203  41.2202736
  22.3682318  90.3265853  43.4642700  22.8651017  89.5735815  43.1443771
  21.5969299  90.3630170  42.8985910  30.2212075  96.0306219  45.1060992
  30.2101951  96.9130934  44.7354925  29.3529454  95.6777769  44.9115529
  21.7294571 105.1786288  49.4663832  22.4422544 105.8133752  49.3939734
  21.2384600 105.2750154  48.6503834  23.4512098  99.0837540  41.0381124
  22.5168377  99.2039003  40.8685828  23.6288767  98.1810007  40.7741134
  18.9517286  92.4683236  43.1914385  18.5815074  91.9154276  43.8795291
  19.4476379  91.8641370  42.6389385  26.8384650  94.9254860  41.5731158
  27.3045102  95.7582851  41.4991461  27.2892150  94.4599841  42.2776416
  16.7806485 102.9280731  50.2869403  17.4815944 103.5617214  50.4398797
  16.3101600 103.2695463  49.5265042  24.9060881 101.2698681  38.5717310
  25.1820725 101.1555275  39.4811184  24.0365379 100.8716166  38.5329483
  24.8101312  87.2935447  45.6122059  23.8964392  87.5239673  45.7804266
  25.2394414  87.3773891  46.4636092  24.5807771  95.4825339  48.1121953
  23.9279221  95.7301246  47.4574406  24.9588151  94.6689477  47.7784431
  21.5414945 105.5185032  42.2150124  21.7237339 104.7006688  42.6777876
  22.3647931 105.7352724  41.7775014  21.8757110 104.4453217  39.4765172
  22.4044877 103.9345671  38.8635334  22.1385330 104.1295747  40.3410705
  20.6295344  96.2245150  54.5987990  19.9535981  96.1239279  55.2690366
  21.4522978  96.0684363  55.0623988  12.3774203 102.4617086  47.2200506
  12.9627640 101.7160774  47.3528410  12.1799041 102.7721043  48.1037169
   6.9691858  95.0322686  45.9404949   7.0075957  94.4986277  46.7342067
   6.4632150  94.5057892  45.3215926  14.3482620  89.8787227  49.4367491
  14.4123946  90.7402058  49.0244889  14.2849740  89.2661228  48.7039850
  13.8234892  91.9510359  53.0840525  14.4506931  91.5687437  53.6978050
  12.9662811  91.7324561  53.4496218  24.2229001 102.3573335  54.6894261
  24.7668905 102.9703293  54.1949216  23.6415846 102.9152913  55.2061274
  10.6000435  93.7586788  39.0158880  10.8953876  92.8497467  38.9625934
   9.6988471  93.7374528  38.6939882  22.5086514 105.4794053  45.8209289
  22.3837653 104.6783792  45.3120234  23.1665605 105.9740246  45.3323258
  14.1294682  91.8342785  44.9986429  13.4081268  92.4478753  44.8593902
  14.9187938  92.3700550  44.9203075  24.5721422 103.2803073  47.4488839
  23.6251758 103.1608424  47.3767165  24.9204195 102.3925571  47.5315100
  16.9320996  89.1697212  51.2727080  17.4555398  89.4159508  52.0353390
  16.7133329  90.0017246  50.8530218  12.3288277  91.4400886  39.1398205
  12.0000983  90.5598265  38.9573311  12.6827648  91.3848555  40.0274595
  21.5767856 103.0755789  43.6493191  21.4292818 102.1472496  43.8300761
  22.4021349 103.0975880  43.1650266  15.4430100  91.7273856  39.5073683
  15.7826172  92.2559777  38.7852291  15.8902220  92.0654262  40.2832250
  25.1801978 103.8984348  44.7358064  26.1048525 103.6927209  44.5982515
  25.0117281 103.6500749  45.6447405  18.1373541  90.1110907  48.9576751
  17.7970361  89.3118720  49.3597431  17.4312547  90.4112618  48.3853584
  18.7890013  87.1960219  47.4104074  19.6116082  86.7220697  47.2882964
  19.0328076  87.9750703  47.9102760  17.4298247  90.2248478  37.7066976
  18.1506610  90.6029730  37.2030693  16.8063551  90.9437354  37.8101954
  21.5729370  90.9293627  38.6425308  21.7892984  91.8118264  38.3414136
  21.0923437  90.5379840  37.9130950  16.3128591  93.8879340  45.2196053
  16.1673172  94.2019643  46.1120334  15.8353795  94.5064240  44.6666951
  18.1724974  90.8781888  45.2676942  18.1586543  89.9822981  44.9309240
  18.8897402  90.8852551  45.9015228  20.0251105  91.3119228  47.3130070
  19.7668883  92.2336299  47.3114400  19.4936145  90.9149662  48.0030534
  24.9697294 104.4170015  40.0920155  25.1434171 103.8516438  39.3394007
  25.4626185 105.2170910  39.9099645  10.7874254  96.4284684  48.1583714
  10.2427722  97.2044492  48.2903988  11.6653603  96.7755489  48.0002835
  17.5761870  89.7596268  40.5364512  17.6977781  88.8312914  40.7355400
  17.2863913  89.7734954  39.6242828  20.4453061  87.4451178  43.6731232
  20.4674757  87.5090512  42.7183212  20.8621120  86.6055687  43.8671738
  30.8236685  97.1806438  41.7110455  31.2667831  96.4313763  41.3129578
  29.9463195  97.1716574  41.3284187  25.9572466 103.7336779  37.1917053
  26.6523371 104.3543472  37.4104368  26.2995616 102.8832131  37.4669431
  11.5740275  95.5554580  51.0513871  10.8322011  95.7037216  51.6378501
  11.2533020  95.8162846  50.1880620  27.8563889 101.1836485  38.7204384
  28.3815213 101.5223758  37.9953704  27.7686242 100.2483500  38.5367519
  19.5183938 105.0970559  50.8494261  19.8271064 104.8519705  51.7216960
  20.3159420 105.3017197  50.3613131  16.9878422 102.7946477  45.1521939
  16.3658432 102.1317182  44.8524167  17.6583289 102.8207609  44.4695587
  10.2205494 101.3606336  44.0413199   9.3837402 100.9328510  43.8597200
  10.1929140 101.5538779  44.9783990  17.0602950  91.2728265  54.7454445
  17.1091105  92.1490388  54.3632215  17.6025464  90.7305658  54.1726088
  27.5457795 101.8169389  54.0255582  26.7553339 101.7993527  53.4860081
  27.3091150 102.3557682  54.7804619  27.6655670  98.6661855  51.3388311
  27.7153675  98.5011862  52.2803833  27.5569594  97.7989114  50.9486191
  16.5491929 101.3450401  38.6280399  16.6980050 102.0285865  37.9747072
  17.3558373 101.3255491  39.1429855  24.9559433  94.6492783  52.6547617
  25.8569296  94.5099248  52.3631615  25.0307407  94.8147238  53.5945795
  19.2902238  92.0259638  51.5000804  18.4205548  92.3193204  51.2283392
  19.5261719  92.6100083  52.2208067  29.1673867 101.0858796  51.5830332
  28.8758676 101.4488777  52.4193793  28.5545999 100.3725805  51.4043664
  30.3669550  98.6511676  44.1032902  31.2016441  99.0901480  44.2670463
  30.5028678  98.1750329  43.2841148  27.4161056  96.2091411  50.0510390
  27.8915177  96.4019057  49.2429241  26.4926621  96.2650597  49.8053774
  14.3044562  97.3715578  39.6341468  14.0590604  96.4677908  39.8321679
  14.4740477  97.3732729  38.6920946  21.9941272  88.2439255  49.0166224
  22.5123216  88.9800282  48.6912713  21.6396405  88.5503248  49.8512983
  13.5740210  93.1043936  37.1327630  12.8809455  93.1788291  36.4767666
  13.3291962  92.3404280  37.6549147  22.2453866  84.6639537  44.5367121
  22.5255620  83.9962726  45.1627547  23.0304473  84.8568633  44.0241784
  20.0487335 103.8398531  36.0992147  19.4761302 104.4588718  35.6462619
  20.6220128 104.3897893  36.6332069  26.1162725  93.0857171  48.2838696
  27.0680147  93.1855269  48.3050920  25.9466175  92.2935440  48.7936780
  24.1377104  90.1712754  48.4698097  23.5427036  90.4517767  47.7744585
  23.8526801  90.6606655  49.2414838  23.2684594 104.1235681  37.2300729
  24.2015268 104.0581243  37.4333605  23.1807807 104.9591948  36.7715262
  25.8972611 103.4401552  34.1904677  25.8186243 103.1061415  35.0840435
  26.7182278 103.9323320  34.1896149  28.5950802  96.3063291  47.3980995
  28.5627122  95.3679292  47.5840679  29.2051426  96.3847328  46.6646820
  20.4334133  95.1759344  33.4408199  21.3793238  95.0465552  33.5096617
  20.0548378  94.4374006  33.9177628  28.7445291  93.0974334  47.4439279
  28.2284339  92.3132791  47.2569207  29.6285239  92.7693051  47.6085798
  26.4056018  86.8415350  43.4035091  26.2080839  86.5330438  44.2878423
  27.0155723  87.5676989  43.5333021  34.4127352  97.3679298  46.5387032
  35.1430741  97.1064586  47.0994735  33.8034298  96.6308020  46.5789100
  32.4942649  95.5087160  47.1361483  31.7675813  95.3743125  46.5277975
  32.0789936  95.8163989  47.9418201  20.3172826  99.2277090  54.9008856
  21.2375835  99.4055689  55.0948903  20.2822409  98.2833135  54.7488556
  18.6177050  93.1009320  33.3763085  17.7108506  92.8042433  33.4525798
  18.8953031  92.8039138  32.5097371   9.5354991  94.4215684  43.8262131
   9.2157775  93.5680992  43.5336505   8.9888419  94.6364262  44.5820098
  13.3134898  97.1378125  47.5431638  13.5320908  98.0695232  47.5619671
  13.7260672  96.7786099  48.3286441  20.2339116  87.6446210  39.5307326
  19.4239844  87.2993295  39.9062572  20.9223533  87.3353754  40.1194937
  22.1629664  86.7224257  41.1531623  22.7160703  87.1419710  41.8121646
  22.3999751  85.7960005  41.1954579  18.1862764  92.7111330  56.9334386
  18.0859490  93.6605687  56.8646478  17.9684306  92.3829569  56.0610457
  17.3875835  89.9596255  33.5175064  18.2494999  90.2851154  33.7770881
  17.5726179  89.1727751  33.0048130   9.4043251  98.0418595  45.7955253
   8.7106722  97.6272548  45.2825207  10.1516242  98.0839132  45.1988672
  25.5408471  88.8324782  40.6610287  24.9607140  89.4909586  40.2788339
  25.2744404  88.0102127  40.2497704  23.9912038  88.2329840  42.8631607
  24.4911816  88.3446374  42.0545926  24.6347646  87.9290892  43.5032416
  18.0494034  96.1408469  55.7499448  17.5661115  96.9408829  55.9563337
  18.1354973  96.1516414  54.7966892  11.3179993  97.9736849  43.6721267
  11.2950681  98.0724536  42.7203151  11.6280630  98.8202000  43.9938434
  13.9767371 100.0313004  47.7867882  14.9310625  99.9996946  47.7197813
  13.7779895  99.5703628  48.6018108  14.5666753  98.6014120  50.3538680
  15.3859642  99.0958199  50.3773517  14.8403561  97.6846088  50.3256247
  24.3233349  90.9924872  39.7166635  23.4359204  91.2774523  39.4986830
  24.7387339  90.8318636  38.8693912  27.6747886  91.0171393  43.4320974
  28.4508276  91.5067846  43.7045591  26.9496020  91.4429448  43.8892844
  30.1120444  91.7299013  44.4894915  30.7064935  91.4894748  43.7788223
  30.1847028  91.0106143  45.1168451  23.4676563 100.7569547  33.8114655
  24.1712413 100.9619549  34.4272311  22.7439212 101.3246309  34.0763739
  24.2974373  96.5079408  39.9316925  24.2409575  96.9647960  39.0924558
  24.8502716  95.7470093  39.7539768  28.1079179  92.2969140  40.7567045
  27.8516113  91.8965776  41.5875252  27.4832047  93.0112934  40.6317184
  32.4191517  95.0365213  43.2638336  31.8591075  95.1058403  44.0369898
  31.8135020  94.8606198  42.5437832  25.3763260 101.1952076  35.8613115
  26.2108864 100.7633275  35.6790590  25.2147603 101.0234090  36.7890010
  25.0309153  97.6984190  37.2269454  24.9757956  97.5328461  36.2857899
  24.4055208  98.4060222  37.3831644   9.8201667  92.9352254  51.0530877
  10.4660531  92.4251208  51.5418102   9.6118819  93.6720936  51.6274302
  22.3455060 100.0033101  56.5523017  23.2146219 100.1773754  56.1909652
  21.8661811 100.8227518  56.4298747  18.3405278  87.1992299  36.8054773
  18.3283948  88.1434138  36.9623044  19.2328700  87.0162444  36.5114234
  22.1557397  83.7935075  41.0600710  21.3889793  83.2393562  41.2057392
  22.5668102  83.8656944  41.9214861  14.1599158  90.0819871  55.1505891
  15.0230620  89.7256676  55.3609215  13.5864569  89.7433766  55.8381295
  33.5588804 109.4373181  43.0321500  34.3451893 109.0192604  42.6811917
  33.8227508 110.3419273  43.2003148  38.9597231 109.3748414  43.9354478
  39.6922403 108.8047631  44.1692308  38.2036587 108.9870015  44.3760984
  36.4822651 103.0869988  48.3949087  36.1505976 103.9565399  48.1710302
  35.8868265 102.7706272  49.0743117  30.2178838 106.8265556  36.1279169
  30.3853240 107.6945792  36.4949640  30.0276007 106.9892837  35.2040459
  36.3751315 107.8065075  45.4742437  35.4668192 107.7380483  45.1801198
  36.3238910 108.2837020  46.3024263  38.2412961 106.0081513  47.2520311
  37.5987341 106.3014046  46.6060106  37.7367890 105.8934433  48.0573508
  35.8953125 109.7544686  37.9406170  36.8070981 109.9872073  37.7653868
  35.3862772 110.3381730  37.3781249  30.5324962 109.1141921  48.9501020
  31.3786158 109.5381334  49.0935669  30.4723600 108.4575545  49.6439583
  33.6824408 106.7746289  50.6082193  33.4385340 107.5288350  50.0716469
  33.9584338 107.1531637  51.4429440  33.2389100 105.9302722  46.1896031
  32.3773579 106.2283976  46.4812769  33.2651534 106.1473121  45.2577064
  44.8414692 112.5395605  43.8066788  44.0878400 111.9703004  43.6510792
  44.9762233 112.5058270  44.7537423  26.7180659 103.4900588  56.1435862
  26.3247605 102.9366786  56.8183507  27.5346800 103.8011166  56.5342380
  29.6348620 104.9058467  53.7356119  30.3758334 105.5065620  53.6560581
  29.8666543 104.1636104  53.1774162  33.5805783 100.9339570  48.0120401
  33.2370053 101.8241211  47.9359511  33.9484746 100.7441227  47.1489986
  31.1303177 105.7697882  41.5778074  30.2744773 105.3804732  41.3983713
  31.5430129 105.8489842  40.7177860  32.6602324 103.3044225  45.9769634
  32.1567119 103.2674360  45.1637439  32.9532930 104.2136968  46.0366291
  28.9045209 103.3882955  44.9835816  29.7698206 103.1925763  44.6241705
  28.9722718 103.1593306  45.9105172  33.3342369 108.7975273  38.3452617
  33.0292505 109.1121422  39.1962760  34.2872811 108.8756693  38.3879950
  26.5107529 105.6185162  42.3552182  27.0851280 105.3960344  41.6225375
  27.0978511 105.6873857  43.1080784  26.8377116 107.6489623  36.3748068
  26.0014428 107.9864310  36.6957342  26.6981885 107.5138603  35.4375205
  28.8130196 102.4926411  41.0827252  28.1594609 102.1775429  40.4583867
  28.7710670 101.8702152  41.8087075  32.0467937 108.9808345  45.4074899
  31.1290498 109.2023292  45.2496588  32.4628080 109.0554655  44.5486607
  35.2781822 107.4156877  42.5196369  34.5404578 106.9034263  42.8506612
  35.5308595 106.9757258  41.7079646  35.3793449 100.1933129  43.1138138
  35.6852326  99.3330492  42.8264053  36.1046054 100.7850749  42.9137132
  33.1881100 109.5705806  50.2119602  33.5430488 109.7977279  51.0714068
  33.8353231 109.9024183  49.5896857  27.0820963 106.6782337  46.9965943
  27.7220343 106.5371096  46.2988907  26.2498494 106.3916851  46.6204545
  31.4600077 104.6882360  50.9603415  30.8127992 105.3872310  50.8667892
  32.2301092 105.1218504  51.3279664  27.3013237 108.0348200  51.0119511
  26.7650594 107.5838938  51.6641107  26.7129945 108.1694108  50.2689975
  26.7115496 107.4936851  33.5745974  25.8344962 107.3725652  33.2108221
  27.1873249 106.7022929  33.3224863  33.2076072 105.6557771  43.4642700
  33.7044772 104.9027733  43.1443771  32.4363054 105.6922087  42.8985910
  41.0605829 111.3598136  45.1060992  41.0495706 112.2422852  44.7354925
  40.1923209 111.0069687  44.9115529  29.7911041 107.7975154  43.1914385
  29.4208828 107.2446194  43.8795291  30.2870133 107.1933287  42.6389385
  37.6778404 110.2546777  41.5731158  38.1438856 111.0874769  41.4991461
  38.1285905 109.7891759  42.2776416  35.6495067 102.6227364  45.6122059
  34.7358147 102.8531591  45.7804266  36.0788168 102.7065808  46.4636092
  35.4201525 110.8117256  48.1121953  34.7672976 111.0593164  47.4574406
  35.7981905 109.9981394  47.7784431  25.1876374 105.2079145  49.4367491
  25.2517701 106.0693975  49.0244889  25.1243495 104.5953146  48.7039850
  24.6628647 107.2802277  53.0840525  25.2900686 106.8979354  53.6978050
  23.8056566 107.0616479  53.4496218  27.7714750 104.4989129  51.2727080
  28.2949152 104.7451426  52.0353390  27.5527084 105.3309164  50.8530218
  23.1682031 106.7692804  39.1398205  22.8394737 105.8890183  38.9573311
  23.5221402 106.7140473  40.0274595  26.2823854 107.0565774  39.5073683
  26.6219927 107.5851695  38.7852291  26.7295975 107.3946180  40.2832250
  28.9767295 105.4402824  48.9576751  28.6364116 104.6410637  49.3597431
  28.2706302 105.7404535  48.3853584  29.6283767 102.5252137  47.4104074
  30.4509836 102.0512615  47.2882964  29.8721831 103.3042621  47.9102760
  28.2692002 105.5540395  37.7066976  28.9900364 105.9321648  37.2030693
  27.6457306 106.2729272  37.8101954  32.4123124 106.2585544  38.6425308
  32.6286739 107.1410182  38.3414136  31.9317192 105.8671758  37.9130950
  29.0118729 106.2073805  45.2676942  28.9980298 105.3114899  44.9309240
  29.7291157 106.2144469  45.9015228  30.8644859 106.6411146  47.3130070
  30.6062637 107.5628216  47.3114400  30.3329900 106.2441580  48.0030534
  28.4155625 105.0888186  40.5364512  28.5371536 104.1604832  40.7355400
  28.1257667 105.1026872  39.6242828  31.2846815 102.7743096  43.6731232
  31.3068512 102.8382429  42.7183212  31.7014874 101.9347605  43.8671738
  41.6630439 112.5098356  41.7110455  42.1061585 111.7605681  41.3129578
  40.7856950 112.5008492  41.3284187  27.8996704 106.6020183  54.7454445
  27.9484860 107.4782306  54.3632215  28.4419218 106.0597576  54.1726088
  35.7953187 109.9784701  52.6547617  36.6963050 109.8391166  52.3631615
  35.8701162 110.1439156  53.5945795  30.1295993 107.3551555  51.5000804
  29.2599302 107.6485121  51.2283392  30.3655473 107.9392000  52.2208067
  38.2554810 111.5383329  50.0510390  38.7308932 111.7310975  49.2429241
  37.3320375 111.5942515  49.8053774  32.8335027 103.5731172  49.0166224
  33.3516970 104.3092199  48.6912713  32.4790159 103.8795166  49.8512983
  33.0847621  99.9931455  44.5367121  33.3649374  99.3254644  45.1627547
  33.8698228 100.1860551  44.0241784  36.9556479 108.4149089  48.2838696
  37.9073902 108.5147187  48.3050920  36.7859929 107.6227357  48.7936780
  34.9770858 105.5004672  48.4698097  34.3820791 105.7809685  47.7744585
  34.6920555 105.9898573  49.2414838  39.4344557 111.6355209  47.3980995
  39.4020877 110.6971209  47.5840679  40.0445180 111.7139245  46.6646820
  39.5839045 108.4266252  47.4439279  39.0678094 107.6424709  47.2569207
  40.4678994 108.0984969  47.6085798  37.2449772 102.1707268  43.4035091
  37.0474593 101.8622356  44.2878423  37.8549478 102.8968906  43.5333021
  45.2521107 112.6971215  46.5387032  45.9824495 112.4356504  47.0994735
  44.6428052 111.9599937  46.5789100  43.3336404 110.8379078  47.1361483
  42.6069567 110.7035043  46.5277975  42.9183691 111.1455907  47.9418201
  29.4570805 108.4301238  33.3763085  28.5502260 108.1334351  33.4525798
  29.7346786 108.1331056  32.5097371  31.0732871 102.9738128  39.5307326
  30.2633599 102.6285213  39.9062572  31.7617287 102.6645671  40.1194937
  33.0023419 102.0516174  41.1531623  33.5554457 102.4711628  41.8121646
  33.2393505 101.1251923  41.1954579  29.0256518 108.0403248  56.9334386
  28.9253245 108.9897605  56.8646478  28.8078060 107.7121487  56.0610457
  28.2269589 105.2888173  33.5175064  29.0888753 105.6143071  33.7770881
  28.4119934 104.5019669  33.0048130  36.3802226 104.1616700  40.6610287
  35.8000895 104.8201504  40.2788339  36.1138159 103.3394044  40.2497704
  34.8305792 103.5621757  42.8631607  35.3305571 103.6738292  42.0545926
  35.4741400 103.2582810  43.5032416  35.1627104 106.3216790  39.7166635
  34.2752959 106.6066441  39.4986830  35.5781093 106.1610553  38.8693912
  38.5141640 106.3463311  43.4320974  39.2902030 106.8359763  43.7045591
  37.7889774 106.7721365  43.8892844  40.9514199 107.0590930  44.4894915
  41.5458690 106.8186666  43.7788223  41.0240782 106.3398061  45.1168451
  38.9472934 107.6261058  40.7567045  38.6909868 107.2257693  41.5875252
  38.3225802 108.3404852  40.6317184  43.2585271 110.3657131  43.2638336
  42.6984829 110.4350320  44.0369898  42.6528775 110.1898116  42.5437832
  29.1799032 102.5284216  36.8054773  29.1677702 103.4726056  36.9623044
  30.0722454 102.3454362  36.5114234  32.9951152  99.1226993  41.0600710
  32.2283548  98.5685480  41.2057392  33.4061857  99.1948862  41.9214861
  24.9992913 105.4111789  55.1505891  25.8624375 105.0548593  55.3609215
  24.4258324 105.0725683  55.8381295   1.4839675  28.2290057  30.5312094
   0.7303383  27.6597455  30.3756099   1.6187216  28.1952722  31.4782729
   1.8946090  28.3865667  33.2632339   2.6249478  28.1250955  33.8240042
   1.2853035  27.6494389  33.3034407   1.4866273  42.7308097  32.6813598
   2.1244683  42.6114844  31.9776939   1.3687116  43.6788941  32.7401551
   1.0407542  40.4559551  29.7566807   1.8270631  40.0378974  29.4057224
   1.3046246  41.3605643  29.9248455   1.2117619  45.8932401  24.4555463
   0.5763452  45.9667028  25.1676368   0.8815025  46.4826000  23.7774543
   6.4415969  40.3934784  30.6599785   7.1741141  39.8234001  30.8937615
   5.6855325  40.0056384  31.1006291   3.9641389  34.1056358  35.1194394
   3.6324714  34.9751769  34.8955609   3.3687003  33.7892642  35.7988424
   3.8570052  38.8251444  32.1987744   2.9486930  38.7566853  31.9046505
   3.8057648  39.3023389  33.0269569   5.7231699  37.0267883  33.9765618
   5.0806079  37.3200416  33.3305412   5.2186627  36.9120803  34.7818814
   3.3771863  40.7731056  24.6651477   4.2889719  41.0058443  24.4899174
   2.8681510  41.3568100  24.1026555   1.6612630  45.1955684  38.3012769
   2.0695986  44.7538094  37.5567402   0.9389892  44.6208311  38.5546962
   1.9841445  45.7556874  32.0565058   1.3550307  45.9202588  31.3541126
   1.5967107  46.1698484  32.8276022   5.8630677  46.6911312  29.4109422
   5.1781715  47.0710213  28.8606455   5.9474526  47.3006639  30.1441370
   1.1643146  37.7932659  37.3327500   0.9204077  38.5474719  36.7961776
   1.4403076  38.1718006  38.1674747   3.1181608  44.3371271  36.0104766
   3.3298504  44.9803031  35.3339147   3.0711357  43.5033588  35.5426696
   4.2327436  47.2143227  34.1827123   5.0544880  46.8123414  33.9009805
   4.2289839  47.1111461  35.1343239  12.3233429  43.5581975  30.5312094
  11.5697138  42.9889373  30.3756099  12.4580971  43.5244640  31.4782729
   1.4381772  49.3321744  38.3648557   1.4200247  50.1530625  37.8728826
   2.3601692  49.2075819  38.5898698   1.0624521  31.9525939  34.7365707
   0.7188790  32.8427581  34.6604818   1.4303484  31.7627597  33.8735292
   1.0274804  41.9434550  23.2438142   0.5121427  42.7139155  23.4826530
   0.7552112  41.2699686  23.8671204   6.0009078  44.6966905  25.1791316
   5.2238521  44.3578064  24.7346478   6.6800559  44.7019528  24.5046281
   0.8161107  39.8161642  25.0697924   0.5111242  40.1307792  25.9208067
   1.7691549  39.8943062  25.1125257   4.2400385  44.1700886  31.8357924
   3.5824059  44.8600148  31.9238052   5.0440784  44.5597318  32.1791910
   3.0505844  42.5245259  29.8861866   3.5637725  43.1575251  30.3883575
   3.7007067  41.9246454  29.5205226   3.8167640  47.5051260  28.0141008
   3.3629967  46.6642170  28.0706199   3.1861606  48.1412659  28.3515788
   2.7600559  38.4343246  29.2441676   2.0223316  37.9220633  29.5751918
   3.0127333  37.9943628  28.4324953   2.2600579  49.3427757  28.9490826
   2.5523553  49.9032814  28.2303192   2.7699200  49.6356318  29.7043985
   2.8612187  31.2119498  29.8383445   3.1671063  30.3516862  29.5509360
   3.5864791  31.8037119  29.6382439   0.6699838  40.5892176  36.9364909
   1.0249226  40.8163649  37.7959375   1.3171969  40.9210552  36.3142164
   6.3997575  43.7110612  27.6414238   6.2615474  43.9012208  26.7135427
   6.0433794  44.4729994  28.0982289   6.4266955  45.7787139  32.6525509
   6.8603461  45.6862428  33.5008563   7.1398535  45.7544639  32.0145525
   7.2882504  45.8210839  35.1858395   7.4818394  46.7256650  35.4317670
   7.1883122  45.3618258  36.0196980   2.3497613  45.9717582  40.7599275
   2.1983119  45.7428134  39.8429359   2.3402292  46.9288183  40.7730620
   2.4035688  44.2937796  21.1769977   1.7864858  43.5684624  21.0803030
   1.9352176  45.0547156  20.8337051   4.0589819  49.0036705  38.8375757
   4.0002366  48.3195925  38.1706340   4.4609338  49.7455695  38.3856383
   4.0607227  46.9676288  37.0689737   3.1734005  46.6302210  37.1916136
   4.6305778  46.2359320  37.3058502   8.5424567  42.3784506  31.8306299
   8.5314443  43.2609221  31.4600232   7.6741947  42.0256057  31.6360836
   1.7724591  45.4315828  27.7626430   0.8380869  45.5517290  27.5931135
   1.9501259  44.5288294  27.4986440   5.1597142  41.2733147  28.2976465
   5.6257594  42.1061138  28.2236767   5.6104642  40.8078128  29.0021723
   3.2273373  47.6176968  25.2962617   3.5033217  47.5033563  26.2056491
   2.3577872  47.2194453  25.2574790   3.1313805  33.6413734  32.3367366
   2.2176884  33.8717961  32.5049573   3.5606906  33.7252178  33.1881398
   2.9020263  41.8303626  34.8367260   2.2491713  42.0779533  34.1819713
   3.2800643  41.0167764  34.5029737   2.5441493  48.7051622  41.4139567
   3.0881397  49.3181580  40.9194522   1.9628338  49.2631200  41.9306580
   0.8299006  51.8272340  32.5454595   0.7050146  51.0262080  32.0365541
   1.4878097  52.3218533  32.0568565   2.8933915  49.6281360  34.1734145
   1.9464250  49.5086711  34.1012472   3.2416688  48.7403858  34.2560407
   3.5014470  50.2462635  31.4603370   4.4261017  50.0405496  31.3227821
   3.3329773  49.9979036  32.3692712   3.2909786  50.7648302  26.8165462
   3.4646664  50.1994725  26.0639314   3.7838677  51.5649197  26.6344952
   9.1449177  43.5284725  28.4355761   9.5880323  42.7792050  28.0374885
   8.2675687  43.5194862  28.0529493   4.2784959  50.0815067  23.9162360
   4.9735863  50.7021759  24.1349675   4.6208109  49.2310418  24.1914738
   6.1776382  47.5314772  25.4449691   6.7027706  47.8702045  24.7199011
   6.0898734  46.5961788  25.2612825   5.8670288  48.1647676  40.7500889
   5.0765831  48.1471815  40.2105388   5.6303642  48.7035970  41.5049925
   5.9868163  45.0140142  38.0633617   6.0366168  44.8490150  39.0049140
   5.8782086  44.1467401  37.6731498   3.2771925  40.9971070  39.3792924
   4.1781788  40.8577535  39.0876922   3.3519900  41.1625525  40.3191101
   7.4886360  47.4337084  38.3075639   7.1971168  47.7967064  39.1439100
   6.8758491  46.7204092  38.1288971   8.6882042  44.9989964  30.8278209
   9.5228933  45.4379768  30.9915769   8.8241171  44.5228617  30.0086455
   5.7373548  42.5569698  36.7755697   6.2127669  42.7497345  35.9674548
   4.8139113  42.6128884  36.5299080   0.5666358  31.0117824  31.2612427
   0.8468112  30.3441014  31.8872854   1.3516965  31.2046920  30.7487091
   4.4375217  39.4335458  35.0084002   5.3892640  39.5333556  35.0296226
   4.2678667  38.6413727  35.5182087   2.4589596  36.5191042  35.1943403
   1.8639528  36.7996054  34.4989892   2.1739293  37.0084943  35.9660144
   1.5897087  50.4713969  23.9546036   2.5227760  50.4059530  24.1578911
   1.5020300  51.3070235  23.4960568   4.2185103  49.7879839  20.9149983
   4.1398735  49.4539702  21.8085741   5.0394770  50.2801607  20.9141456
   6.9163295  42.6541578  34.1226302   6.8839615  41.7157579  34.3085986
   7.5263918  42.7325615  33.3892127   7.0657783  39.4452622  34.1684585
   6.5496832  38.6611078  33.9814514   7.9497732  39.1171338  34.3331105
   4.7268510  33.1893637  30.1280398   4.5293331  32.8808725  31.0123730
   5.3368216  33.9155276  30.2578328  12.7339844  43.7157585  33.2632339
  13.4643233  43.4542873  33.8240042  12.1246790  42.9786307  33.3034407
  10.8155142  41.8565448  33.8606790  10.0888305  41.7221413  33.2523282
  10.4002428  42.1642276  34.6663508   0.4842157  33.0702544  27.8776929
   1.0373195  33.4897997  28.5366952   0.7212243  32.1438292  27.9199885
   3.8620964  35.1803069  27.3855593   3.2819633  35.8387873  27.0033646
   3.5956896  34.3580414  26.9743011   2.3124530  34.5808127  29.5876914
   2.8124308  34.6924661  28.7791233   2.9560138  34.2769180  30.2277722
   2.6445842  37.3403160  26.4411942   1.7571697  37.6252810  26.2232136
   3.0599831  37.1796923  25.5939219   5.9960378  37.3649681  30.1566281
   6.7720768  37.8546133  30.4290898   5.2708512  37.7907735  30.6138150
   8.4332936  38.0777300  31.2140222   9.0277427  37.8373036  30.5033530
   8.5059520  37.3584430  31.8413758   1.7889055  47.1047834  20.5359962
   2.4924905  47.3097837  21.1517617   1.0651704  47.6724596  20.8009045
   2.6186865  42.8557696  26.6562232   2.5622067  43.3126247  25.8169864
   3.1715208  42.0948380  26.4785075   6.4291671  38.6447427  27.4812351
   6.1728606  38.2444063  28.3120559   5.8044539  39.3591221  27.3562491
  10.7404009  41.3843501  29.9883643  10.1803567  41.4536690  30.7615205
  10.1347513  41.2084485  29.2683139   3.6975753  47.5430363  22.5858422
   4.5321357  47.1111562  22.4035897   3.5360096  47.3712377  23.5135316
   3.3521645  44.0462477  23.9514761   3.2970449  43.8806748  23.0103205
   2.7267700  44.7538510  24.1076951  12.3260028  58.0600015  32.6813598
  12.9638438  57.9406762  31.9776939  12.2080871  59.0080859  32.7401551
   9.1349734  58.0127443  32.6175123   8.7968245  57.8968507  31.7295658
  10.0039502  57.6118608  32.5976129   4.9936550  59.8662919  28.6072014
   4.4301415  59.7752856  27.8388302   4.8788945  59.0462824  29.0874507
   9.6169517  59.1662294  38.5761329   9.6058158  58.7715093  37.7041832
   9.7790156  58.4328367  39.1695100   2.5400982  61.3614111  31.4456235
   3.3322274  61.0204935  31.0302534   2.7797632  61.4709086  32.3658388
  10.5736108  63.5333887  23.9186479   9.9224088  64.1187967  23.5320493
  11.3680471  64.0640082  23.9781517   4.4991736  60.6223024  24.3173613
   5.2722612  60.0752011  24.1786489   4.8517134  61.4867273  24.5288075
   6.3376778  61.9499406  37.5240513   6.0466644  62.8545037  37.4087179
   6.9733762  61.9915934  38.2384582   7.2632985  59.3276255  34.1141872
   7.8596557  59.1032277  33.3998835   7.3207956  58.5861000  34.7167320
   6.8358013  56.7815690  21.9492063   7.0883534  56.2597211  21.1875526
   5.8982572  56.6181835  22.0518747  11.8801296  55.7851468  29.7566807
  12.6664385  55.3670892  29.4057224  12.1440001  56.6897561  29.9248455
  12.0511374  61.2224319  24.4555463  11.4157207  61.2958945  25.1676368
  11.7208780  61.8117918  23.7774543  17.2809723  55.7226702  30.6599785
  18.0134895  55.1525918  30.8937615  16.5249079  55.3348302  31.1006291
   6.5554302  58.6843796  24.1516438   6.4390560  58.0088699  24.8197523
   6.6656562  58.1976170  23.3348591   8.8985843  58.1453943  27.8563128
   8.5344050  57.6184564  28.5676049   9.7552959  57.7552412  27.6829613
  14.8035144  49.4348276  35.1194394  14.4718468  50.3043687  34.8955609
  14.2080757  49.1184560  35.7988424   8.5391330  53.1743843  22.8524476
   8.7065732  54.0424079  23.2194947   8.3488499  53.3371124  21.9285765
  11.2966663  61.6360822  34.5190306  10.9967386  62.5385861  34.4106114
  10.9517723  61.3693005  35.3711459   4.7479145  58.0874619  30.5527011
   3.8229641  57.9550833  30.7604703   4.9963558  58.8668838  31.0496953
  14.6963807  54.1543362  32.1987744  13.7880684  54.0858770  31.9046505
  14.6451403  54.6315307  33.0269569   8.5180551  55.6301500  23.8371143
   8.3980176  56.0758551  24.6756623   7.8233139  55.9786818  23.2784681
   2.1087956  57.7307892  31.3870800   2.2380337  57.9842371  32.3010212
   1.4285407  58.3235600  31.0675455   6.2787443  68.4005142  27.4861274
   6.2011473  69.3512967  27.5649755   5.6749087  68.0551015  28.1436200
   8.7704673  55.5733007  40.1422641   7.9938007  56.1326928  40.1325506
   9.4095236  56.0589790  40.6637511  16.5625453  52.3559800  33.9765618
  15.9199834  52.6492333  33.3305412  16.0580382  52.2412721  34.7818814
  14.2165617  56.1022973  24.6651477  15.1283473  56.3350360  24.4899174
  13.7075264  56.6860018  24.1026555   7.0251045  58.3818461  39.7040608
   7.7665729  58.9203505  39.4275432   6.3188031  59.0084750  39.8612160
  12.5006385  60.5247601  38.3012769  12.9089741  60.0830012  37.5567402
  11.7783646  59.9500229  38.5546962   8.8537455  55.4620208  35.6746326
   9.6998650  55.8859622  35.8180975   8.7936092  54.8053832  36.3684890
  12.8235199  61.0848792  32.0565058  12.1944062  61.2494506  31.3541126
  12.4360861  61.4990401  32.8276022  16.7024431  62.0203230  29.4109422
  16.0175469  62.4002131  28.8606455  16.7868281  62.6298556  30.1441370
  12.0036900  53.1224576  37.3327500  11.7597832  53.8766637  36.7961776
  12.2796831  53.5009924  38.1674747  13.9575363  59.6663189  36.0104766
  14.1692258  60.3094949  35.3339147  13.9105111  58.8325505  35.5426696
  11.5601592  52.2781009  32.9141338  10.6986071  52.5762263  33.2058075
  11.5864026  52.4951408  31.9822370   8.3763161  60.8223200  29.3215143
   8.8401507  61.1010903  28.5319766   8.1119959  59.9206645  29.1388234
   5.2687242  60.3694682  32.2594907   5.8388599  60.7981950  31.6212391
   5.8595354  60.0877266  32.9579092   7.3132047  56.9446352  26.1304709
   8.0156091  57.3967396  26.5978635   6.9812676  56.3030171  26.7584602
   5.7612409  55.5358109  40.5055918   5.1311069  56.2174390  40.7391315
   5.6548497  55.4241191  39.5609056  15.0721191  62.5435144  34.1827123
  15.8938635  62.1415331  33.9009805  15.0683594  62.4403378  35.1343239
   3.0072127  55.5674484  28.3905319   2.2103290  55.6793179  28.9088815
   2.7797719  55.9061137  27.5246209   8.8377794  62.0919188  36.3387833
   8.9022227  62.5539595  37.1746005   8.1288718  61.4616552  36.4670143
  23.1627184  58.8873893  30.5312094  22.4090892  58.3181291  30.3756099
  23.2974725  58.8536557  31.4782729   8.5525812  63.7587295  26.2066814
   8.4171487  64.6038831  26.6351662   9.0935624  63.9606573  25.4432748
   5.0393152  49.8378875  42.8681169   4.6460097  49.2845073  43.5428813
   5.8559292  50.1489453  43.2587687   2.0055209  61.2762733  26.7794739
   2.5179730  62.0705983  26.9300304   2.6577922  60.5789023  26.7128340
   3.8150094  64.3928489  28.8617492   3.9916722  65.3146454  28.6738476
   4.6106928  64.0786909  29.2911872   7.9561113  51.2536754  40.4601426
   8.6970826  51.8543907  40.3805888   8.1879035  50.5114392  39.9019468
   3.1002451  56.4393121  38.7379655   2.9855966  55.5378378  39.0386754
   2.2446968  56.6856818  38.3864472  10.1794288  64.3810862  40.3367156
   9.7358142  63.5947240  40.0188060  10.8411502  64.5690012  39.6711047
   4.9381409  65.9106663  34.8627834   5.4888835  65.7823726  34.0904828
   4.0992885  66.2101552  34.5122727  12.2775526  64.6613661  38.3648557
  12.2594002  65.4822542  37.8728826  13.1995446  64.5367737  38.5898698
   8.7348581  62.1757791  39.2072066   9.2676917  61.4146079  38.9771374
   8.2062662  61.8831443  39.9496220  11.9018275  47.2817857  34.7365707
  11.5582545  48.1719499  34.6604818  12.2697238  47.0919515  33.8735292
  11.8668558  57.2726468  23.2438142  11.3515182  58.0431073  23.4826530
  11.5945867  56.5991604  23.8671204   9.4515669  52.1176169  28.3023381
   8.5957266  51.7283019  28.1229019   9.8642621  52.1968130  27.4423166
  10.9814816  49.6522512  32.7014941  10.4779611  49.6152647  31.8882746
  11.2745423  50.5615255  32.7611597   7.2257702  49.7361242  31.7081122
   8.0910699  49.5404050  31.3487012   7.2935211  49.5071594  32.6350479
  16.8402832  60.0258823  25.1791316  16.0632275  59.6869982  24.7346478
  17.5194313  60.0311446  24.5046281  11.6554861  55.1453560  25.0697924
  11.3504997  55.4599709  25.9208067  12.6085303  55.2234980  25.1125257
  10.1001293  61.3043783  26.7190878   9.5722655  60.5696543  26.4064115
   9.5988796  62.0818460  26.4730846  15.0794139  59.4992804  31.8357924
  14.4217814  60.1892065  31.9238052  15.8834538  59.8889236  32.1791910
   4.8320021  51.9663450  29.0797489   5.4063773  51.7438631  28.3470682
   5.4191003  52.0352144  29.8326090  13.8899598  57.8537177  29.8861866
  14.4031480  58.4867168  30.3883575  14.5400822  57.2538372  29.5205226
   5.1589608  53.9967911  23.0993374   4.3226920  54.3342597  23.4202649
   5.0194378  53.8616891  22.1620511   7.1342689  48.8404699  27.8072558
   6.4807101  48.5253716  27.1829173   7.0923163  48.2180439  28.5332381
   8.2453893  59.1223994  19.7225851   7.3380955  58.8913247  19.9217000
   8.7424925  58.3261613  19.9099832  11.1521972  67.8321501  22.6422537
  10.4783671  68.1353198  23.2507495  11.5387794  68.6350581  22.2927994
  10.3680429  55.3286632  32.1320206   9.4502990  55.5501579  31.9741894
  10.7840573  55.4032943  31.2731913  11.1515477  56.7278048  27.2622886
  11.8987296  57.2399445  26.9530008  11.4207066  56.4062101  28.1227280
   9.4242127  59.2236589  24.2449841   8.5153346  58.9395621  24.3422310
   9.4537211  59.6435667  23.3853148  14.6561394  62.8343178  28.0141008
  14.2023721  61.9934088  28.0706199  14.0255361  63.4704576  28.3515788
  13.5994314  53.7635164  29.2441676  12.8617071  53.2512550  29.5751918
  13.8521087  53.3235546  28.4324953  13.0994333  64.6719675  28.9490826
  13.3917308  65.2324732  28.2303192  13.6092954  64.9648236  29.7043985
  13.7005941  46.5411416  29.8383445  14.0064818  45.6808780  29.5509360
  14.4258546  47.1329036  29.6382439   7.9727021  56.8365209  30.3459636
   8.0275631  55.8839046  30.2702113   7.1618223  56.9924648  30.8300934
   9.1218215  60.7645332  21.5837919   8.6837645  60.0481191  21.1243557
   9.8628655  60.9921447  21.0223011   5.9119381  55.4542269  28.1050015
   5.0987246  55.7536439  28.5115207   6.4078375  55.0597958  28.8224497
   8.0627959  65.4500026  30.0384280   8.0204137  65.6760872  29.1092812
   8.9790658  65.2163400  30.1870081  11.5093592  55.9184093  36.9364909
  11.8642980  56.1455566  37.7959375  12.1565724  56.2502470  36.3142164
  17.2391329  59.0402529  27.6414238  17.1009228  59.2304125  26.7135427
  16.8827548  59.8021912  28.0982289   5.4033456  53.0260624  33.7211250
   6.0432835  52.8849384  33.0234213   4.5710986  52.7395138  33.3449852
  17.2660709  61.1079056  32.6525509  17.6997216  61.0154345  33.5008563
  17.9792290  61.0836557  32.0145525   6.1793759  62.3263055  29.8346242
   6.9734358  61.8313375  29.6328817   5.4685452  61.7980918  29.4713948
  10.9988604  64.7081150  34.1858610  11.0525626  65.2772087  34.9536326
  10.1303385  64.8783035  33.8212647   2.4876523  56.4706137  25.9105995
   1.5574111  56.4090592  26.1275957   2.5833995  55.9482089  25.1142636
   2.4062072  52.9960949  28.4984237   2.6668889  53.9106283  28.3893397
   3.2279244  52.5285392  28.6480849   3.8786997  54.4098707  35.6683061
   4.5510051  54.2016069  35.0195710   3.0516784  54.2120793  35.2288293
  18.1276259  61.1502757  35.1858395  18.3212149  62.0548567  35.4317670
  18.0276877  60.6910176  36.0196980   9.7812569  51.0360647  37.6848722
   9.1340484  51.7350597  37.5913198  10.5513585  51.4696791  38.0524970
  13.1891367  61.3009500  40.7599275  13.0376874  61.0720051  39.8429359
  13.1796047  62.2580101  40.7730620   9.9576704  58.8741412  35.7445542
  10.8868764  59.0252572  35.5714509   9.5367734  58.9625433  34.8894188
   8.7565035  62.8992077  33.5144079   8.6176121  62.5310861  34.3870017
   7.9679632  63.4139716  33.3428037   9.3513187  68.0001173  24.8569616
   9.5264943  67.5289216  25.6715239   8.6645975  68.6266939  25.0850877
  10.3070251  62.2773680  30.9032917   9.9720083  62.2374449  31.7990567
   9.8074196  61.6118395  30.4303327   4.2814495  57.6841310  36.4285498
   4.1434292  56.9521548  37.0297037   5.1919418  57.5950210  36.1469686
  13.2429442  59.6229714  21.1769977  12.6258613  58.8976542  21.0803030
  12.7745931  60.3839074  20.8337051   6.9096795  57.3961269  35.9169178
   7.6196414  56.7554461  35.8755796   6.8666103  57.6474164  36.8395359
  14.8983574  64.3328622  38.8375757  14.8396120  63.6487842  38.1706340
  15.3003092  65.0747612  38.3856383   5.6225729  54.3826487  37.7364817
   5.0863086  53.9317225  38.3886414   5.0342438  54.5172396  36.9935282
   3.9174273  71.1490536  31.6309476   4.1570871  71.7809060  32.3088495
   3.0743469  70.7978576  31.9174835   5.0327988  53.8415138  20.2991281
   4.1557454  53.7203939  19.9353528   5.5085741  53.0501216  20.0470170
  14.9000981  62.2968206  37.0689737  14.0127760  61.9594128  37.1916136
  15.4699532  61.5651237  37.3058502   1.3564850  53.5182494  34.8217812
   1.2723039  52.9108164  34.0868222   0.5347557  54.0091513  34.8227308
   8.4302135  66.9569658  34.0350980   8.3572306  67.7624630  34.5470285
   7.9879528  67.1561624  33.2099001   8.2191914  66.1941429  27.5453802
   7.4359436  66.7363109  27.6392026   8.9184659  66.7115408  27.9448043
  11.5288564  52.0036058  30.1888007  12.0257264  51.2506020  29.8689077
  10.7575546  52.0400375  29.6231216  19.3818322  57.7076424  31.8306299
  19.3708198  58.5901139  31.4600232  18.5135701  57.3547974  31.6360836
  10.8900818  66.8556493  36.1909139  11.6028790  67.4903957  36.1185040
  10.3990847  66.9520359  35.3749141  12.6118345  60.7607745  27.7626430
  11.6774624  60.8809208  27.5931135  12.7895013  59.8580212  27.4986440
   8.1123533  54.1453441  29.9159692   7.7421321  53.5924481  30.6040597
   8.6082626  53.5411574  29.3634692  15.9990896  56.6025064  28.2976465
  16.4651349  57.4353056  28.2236767  16.4498397  56.1370046  29.0021723
   5.9412732  64.6050936  37.0114710   6.6422191  65.2387419  37.1644104
   5.4707847  64.9465668  36.2510349  14.0667127  62.9468886  25.2962617
  14.3426971  62.8325480  26.2056491  13.1971626  62.5486371  25.2574790
  13.9707559  48.9705651  32.3367366  13.0570639  49.2009878  32.5049573
  14.4000661  49.0544096  33.1881398  13.7414018  57.1595543  34.8367260
  13.0885468  57.4071451  34.1819713  14.1194397  56.3459682  34.5029737
  10.7021191  67.1955237  28.9395430  10.8843586  66.3776893  29.4023183
  11.5254177  67.4122929  28.5020320  11.0363357  66.1223422  26.2010479
  11.5651123  65.6115876  25.5880641  11.2991577  65.8065952  27.0656012
   9.7901591  57.9015354  41.3233297   9.1142228  57.8009484  41.9935672
  10.6129224  57.7454568  41.7869294   1.5380450  64.1387291  33.9445812
   2.1233887  63.3930979  34.0773716   1.3405288  64.4491248  34.8282476
   4.3919105  67.1738538  28.9608255   3.7229480  67.6584666  28.4772295
   4.2531975  67.4207759  29.8751633   8.5324373  69.2082282  35.5590913
   9.0842682  69.3713903  36.3239998   8.8730567  69.7986720  34.8870938
   3.5088867  51.5557432  36.1612798   3.5730193  52.4172263  35.7490195
   3.4455987  50.9431433  35.4285156   2.9841139  53.6280564  39.8085832
   3.6113178  53.2457642  40.4223356   2.1269058  53.4094766  40.1741524
  13.3835248  64.0343539  41.4139567  13.9275152  64.6473498  40.9194522
  12.8022093  64.5923118  41.9306580  11.6692761  67.1564257  32.5454595
  11.5443900  66.3553997  32.0365541  12.3271852  67.6510451  32.0568565
   3.2900929  53.5112990  31.7231735   2.5687515  54.1248958  31.5839209
   4.0794185  54.0470755  31.6448381  13.7327669  64.9573278  34.1734145
  12.7858005  64.8378629  34.1012472  14.0810442  64.0695776  34.2560407
   6.0927243  50.8467416  37.9972387   6.6161644  51.0929713  38.7598696
   5.8739576  51.6787451  37.5775524   1.4894524  53.1171091  25.8643512
   1.1607230  52.2368470  25.6818618   1.8433894  53.0618760  26.7519901
  10.7374102  64.7525994  30.3738497  10.5899065  63.8242701  30.5546067
  11.5627596  64.7746084  29.8895573   4.6036347  53.4044061  26.2318990
   4.9432419  53.9329982  25.5097598   5.0508467  53.7424467  27.0077556
  14.3408224  65.5754552  31.4603370  15.2654772  65.3697414  31.3227821
  14.1723528  65.3270954  32.3692712   7.2979788  51.7881112  35.6822058
   6.9576608  50.9888925  36.0842738   6.5918794  52.0882822  35.1098891
   7.9496259  48.8730424  34.1349381   8.7722329  48.3990902  34.0128271
   8.1934323  49.6520908  34.6348067   6.5904494  51.9018682  24.4312282
   7.3112856  52.2799935  23.9275999   5.9669798  52.6207559  24.5347260
  10.7335617  52.6063831  25.3670615  10.9499231  53.4888469  25.0659443
  10.2529684  52.2150045  24.6376257   5.4734838  55.5649545  31.9441359
   5.3279419  55.8789848  32.8365641   4.9960042  56.1834445  31.3912258
   7.3331221  52.5552093  31.9922249   7.3192790  51.6593186  31.6554547
   8.0503649  52.5622756  32.6260535   9.1857352  52.9889433  34.0375376
   8.9275130  53.9106503  34.0359707   8.6542392  52.5919867  34.7275840
  14.1303541  66.0940220  26.8165462  14.3040418  65.5286642  26.0639314
  14.6232432  66.8941115  26.6344952   6.7368117  51.4366473  27.2609819
   6.8584028  50.5083119  27.4600706   6.4470159  51.4505159  26.3488134
   9.6059307  49.1221383  30.3976539   9.6281004  49.1860716  29.4428518
  10.0227366  48.2825892  30.5917045  19.9842932  58.8576643  28.4355761
  20.4274078  58.1083968  28.0374885  19.1069442  58.8486779  28.0529493
  15.1178713  65.4106984  23.9162360  15.8129618  66.0313677  24.1349675
  15.4601863  64.5602336  24.1914738  17.0170136  62.8606690  25.4449691
  17.5421460  63.1993963  24.7199011  16.9292489  61.9253705  25.2612825
   8.6790185  66.7740764  37.5739567   8.9877311  66.5289910  38.4462267
   9.4765667  66.9787402  37.0858438   8.7010797  68.9278673  29.8044944
   8.2615787  68.4355052  30.4977801   9.4518914  68.3851641  29.5637019
   1.1803136  65.1190214  29.8069572   2.0061156  64.8193986  29.4268216
   0.8297188  64.3497836  30.2559361   6.1484669  64.4716682  31.8767246
   5.5264678  63.8087387  31.5769473   6.8189536  64.4977814  31.1940893
   6.2209197  52.9498470  41.4699752   6.2697352  53.8260593  41.0877521
   6.7631711  52.4075863  40.8971395  16.7064042  63.4939594  40.7500889
  15.9159586  63.4763732  40.2105388  16.4697397  64.0327887  41.5049925
  16.8261917  60.3432060  38.0633617  16.8759922  60.1782067  39.0049140
  16.7175841  59.4759319  37.6731498   5.7098176  63.0220606  25.3525706
   5.8586296  63.7056070  24.6992379   6.5164619  63.0025696  25.8675162
  14.1165680  56.3262988  39.3792924  15.0175542  56.1869453  39.0876922
  14.1913654  56.4917443  40.3191101   8.4508485  53.7029843  38.2246110
   7.5811794  53.9963409  37.9528699   8.6867965  54.2870288  38.9453374
  18.3280114  62.7629001  38.3075639  18.0364922  63.1258982  39.1439100
  17.7152245  62.0496010  38.1288971  19.5275796  60.3281881  30.8278209
  20.3622688  60.7671685  30.9915769  19.6634925  59.8520534  30.0086455
  16.5767302  57.8861616  36.7755697  17.0521424  58.0789262  35.9674548
  15.6532868  57.9420802  36.5299080   3.4650809  59.0485783  26.3586775
   3.2196851  58.1448113  26.5566985   3.6346723  59.0502934  25.4166253
  11.1547519  49.9209460  35.7411531  11.6729463  50.6570487  35.4158019
  10.8002652  50.2273453  36.5758290   2.7346456  54.7814141  23.8572936
   2.0415701  54.8558496  23.2012972   2.4898208  54.0174484  24.3794453
  11.4060113  46.3409742  31.2612427  11.6861867  45.6732931  31.8872854
  12.1910720  46.5338838  30.7487091   9.2093581  65.5168736  22.8237454
   8.6367549  66.1358923  22.3707925   9.7826375  66.0668098  23.3577375
  15.2768971  54.7627376  35.0084002  16.2286394  54.8625474  35.0296226
  15.1072422  53.9705645  35.5182087  13.2983351  51.8482959  35.1943403
  12.7033283  52.1287972  34.4989892  13.0133047  52.3376860  35.9660144
  12.4290841  65.8005886  23.9546036  13.3621514  65.7351448  24.1578911
  12.3414054  66.6362153  23.4960568  15.0578858  65.1171757  20.9149983
  14.9792489  64.7831620  21.8085741  15.8788525  65.6093524  20.9141456
  17.7557049  57.9833496  34.1226302  17.7233369  57.0449497  34.3085986
  18.3657673  58.0617533  33.3892127   9.5940380  56.8529549  20.1653506
  10.5399485  56.7235757  20.2341924   9.2154625  56.1144211  20.6422934
  17.9051538  54.7744539  34.1684585  17.3890586  53.9902996  33.9814514
  18.7891486  54.4463256  34.3331105  15.5662264  48.5185555  30.1280398
  15.3687086  48.2100643  31.0123730  16.1761970  49.2447194  30.2578328
  21.6548896  57.1857365  33.8606790  20.9282060  57.0513330  33.2523282
  21.2396183  57.4934194  34.6663508   9.4779072  60.9047295  41.6254163
  10.3982082  61.0825894  41.8194210   9.4428656  59.9603340  41.4733862
   7.7783297  54.7779525  20.1008391   6.8714752  54.4812638  20.1771105
   8.0559278  54.4809343  19.2342677   2.4741145  58.8148330  34.2676944
   2.6927155  59.7465437  34.2864978   2.8866919  58.4556304  35.0531748
   9.3945363  49.3216415  26.2552633   8.5846091  48.9763500  26.6307879
  10.0829780  49.0123959  26.8440244  11.3235911  48.3994462  27.8776929
  11.8766950  48.8189915  28.5366952  11.5605997  47.4730210  27.9199885
   7.3469010  54.3881535  43.6579693   7.2465737  55.3375892  43.5891784
   7.1290552  54.0599774  42.7855763   6.5482082  51.6366460  20.2420370
   7.4101246  51.9621359  20.5016188   6.7332426  50.8497956  19.7293436
  14.7014718  50.5094987  27.3855593  14.1213387  51.1679791  27.0033646
  14.4350651  49.6872331  26.9743011  13.1518285  49.9100045  29.5876914
  13.6518063  50.0216579  28.7791233  13.7953892  49.6061097  30.2277722
   7.2100280  57.8178674  42.4744755   6.7267362  58.6179034  42.6808644
   7.2961219  57.8286619  41.5212199   0.4786240  59.6507054  30.3966574
   0.4556928  59.7494741  29.4448457   0.7886877  60.4972205  30.7183740
   3.1373618  61.7083209  34.5113189   4.0916871  61.6767151  34.4443120
   2.9386141  61.2473833  35.3263414   3.7273000  60.2784325  37.0783986
   4.5465889  60.7728404  37.1018823   4.0009808  59.3616293  37.0501554
  13.4839596  52.6695077  26.4411942  12.5965451  52.9544728  26.2232136
  13.8993585  52.5088841  25.5939219  16.8354132  52.6941598  30.1566281
  17.6114522  53.1838051  30.4290898  16.1102267  53.1199652  30.6138150
  19.2726691  53.4069217  31.2140222  19.8671182  53.1664953  30.5033530
  19.3453275  52.6876348  31.8413758   1.4923847  67.2502828  31.5283386
   1.3578315  66.4903229  30.9621384   1.0755909  67.9743728  31.0612175
  12.6282810  62.4339752  20.5359962  13.3318660  62.6389754  21.1517617
  11.9045458  63.0016514  20.8009045  13.4580620  58.1849613  26.6562232
  13.4015821  58.6418165  25.8169864  14.0108962  57.4240298  26.4785075
  17.2685426  53.9739345  27.4812351  17.0122360  53.5735981  28.3120559
  16.6438294  54.6883139  27.3562491  21.5797764  56.7135418  29.9883643
  21.0197322  56.7828608  30.7615205  20.9741267  56.5376403  29.2683139
   4.6492973  68.1472145  31.7401829   4.5325357  69.0917578  31.6380519
   3.8285419  67.8445707  32.1287628  14.5369507  62.8722281  22.5858422
  15.3715111  62.4403480  22.4035897  14.3753850  62.7004295  23.5135316
  14.1915399  59.3754394  23.9514761  14.1364203  59.2098666  23.0103205
  13.5661455  60.0830427  24.1076951  11.5061306  61.6803306  43.2768324
  12.3752466  61.8543959  42.9154959  11.0268058  62.4997723  43.1544053
   7.5011525  48.8762503  23.5300079   7.4890195  49.8204343  23.6868350
   8.3934947  48.6932649  23.2359541   5.6747487  68.8000407  34.9557757
   6.5774733  68.8324018  35.2724252   5.4484857  67.8700858  34.9704093
   7.4301089  67.5531394  31.6167836   6.4796720  67.5533255  31.5032208
   7.7333575  66.8064128  31.1003871  11.3163644  45.4705280  27.7846016
  10.5496040  44.9163767  27.9302699  11.7274349  45.5427149  28.6460168
   3.3205405  51.7590076  41.8751197   4.1836867  51.4026881  42.0854522
   2.7470816  51.4203971  42.5626602  23.1653782  73.3891932  32.6813598
  23.8032192  73.2698680  31.9776939  23.0474625  74.3372776  32.7401551
  19.9743488  73.3419360  32.6175123  19.6362000  73.2260425  31.7295658
  20.8433257  72.9410525  32.5976129  15.8330304  75.1954837  28.6072014
  15.2695169  75.1044774  27.8388302  15.7182699  74.3754741  29.0874507
  20.4563271  74.4954212  38.5761329  20.4451912  74.1007010  37.7041832
  20.6183911  73.7620285  39.1695100  13.3794736  76.6906028  31.4456235
  14.1716028  76.3496853  31.0302534  13.6191386  76.8001003  32.3658388
  21.4129863  78.8625804  23.9186479  20.7617843  79.4479885  23.5320493
  22.2074226  79.3931999  23.9781517  15.3385490  75.9514942  24.3173613
  16.1116366  75.4043929  24.1786489  15.6910889  76.8159191  24.5288075
  17.1770533  77.2791324  37.5240513  16.8860399  78.1836955  37.4087179
  17.8127517  77.3207851  38.2384582  18.1026739  74.6568172  34.1141872
  18.6990312  74.4324195  33.3998835  18.1601711  73.9152918  34.7167320
  17.6751768  72.1107608  21.9492063  17.9277289  71.5889129  21.1875526
  16.7376327  71.9473753  22.0518747  22.7195051  71.1143386  29.7566807
  23.5058140  70.6962809  29.4057224  22.9833755  72.0189478  29.9248455
  22.8905128  76.5516236  24.4555463  22.2550961  76.6250863  25.1676368
  22.5602534  77.1409835  23.7774543  17.3948057  74.0135714  24.1516438
  17.2784315  73.3380617  24.8197523  17.5050316  73.5268088  23.3348591
  19.7379598  73.4745861  27.8563128  19.3737805  72.9476482  28.5676049
  20.5946713  73.0844330  27.6829613  19.3785085  68.5035760  22.8524476
  19.5459487  69.3715997  23.2194947  19.1882254  68.6663042  21.9285765
  22.1360418  76.9652739  34.5190306  21.8361141  77.8677778  34.4106114
  21.7911477  76.6984923  35.3711459  15.5872899  73.4166536  30.5527011
  14.6623396  73.2842750  30.7604703  15.8357312  74.1960755  31.0496953
  19.3574305  70.9593418  23.8371143  19.2373931  71.4050469  24.6756623
  18.6626894  71.3078736  23.2784681  12.9481710  73.0599810  31.3870800
  13.0774091  73.3134289  32.3010212  12.2679162  73.6527518  31.0675455
  17.1181197  83.7297060  27.4861274  17.0405227  84.6804885  27.5649755
  16.5142841  83.3842932  28.1436200  19.6098427  70.9024925  40.1422641
  18.8331761  71.4618845  40.1325506  20.2488990  71.3881708  40.6637511
  25.0559372  71.4314891  24.6651477  25.9677228  71.6642278  24.4899174
  24.5469019  72.0151935  24.1026555  17.8644800  73.7110379  39.7040608
  18.6059484  74.2495422  39.4275432  17.1581785  74.3376667  39.8612160
  23.3400139  75.8539519  38.3012769  23.7483495  75.4121929  37.5567402
  22.6177401  75.2792146  38.5546962  19.6931209  70.7912126  35.6746326
  20.5392404  71.2151539  35.8180975  19.6329847  70.1345750  36.3684890
  23.6628954  76.4140710  32.0565058  23.0337816  76.5786424  31.3541126
  23.2754616  76.8282319  32.8276022  24.7969117  74.9955106  36.0104766
  25.0086013  75.6386866  35.3339147  24.7498866  74.1617423  35.5426696
  19.2156916  76.1515118  29.3215143  19.6795261  76.4302821  28.5319766
  18.9513714  75.2498562  29.1388234  16.1080997  75.6986599  32.2594907
  16.6782354  76.1273868  31.6212391  16.6989109  75.4169184  32.9579092
  18.1525802  72.2738270  26.1304709  18.8549845  72.7259314  26.5978635
  17.8206430  71.6322089  26.7584602  16.6006163  70.8650027  40.5055918
  15.9704824  71.5466308  40.7391315  16.4942251  70.7533108  39.5609056
  11.8951136  70.5321823  31.4321842  11.1050190  70.7879351  30.9561953
  12.3862383  71.3470161  31.5373883  13.8465881  70.8966402  28.3905319
  13.0497044  71.0085096  28.9088815  13.6191473  71.2353054  27.5246209
  19.6771549  77.4211105  36.3387833  19.7415981  77.8831512  37.1746005
  18.9682473  76.7908470  36.4670143  10.1788839  70.7852313  33.8636833
  10.4296877  71.6699323  34.1294409  10.7148387  70.6056915  33.0911925
  19.3919566  79.0879213  26.2066814  19.2565241  79.9330748  26.6351662
  19.9329379  79.2898490  25.4432748  15.8786906  65.1670793  42.8681169
  15.4853852  64.6136991  43.5428813  16.6953046  65.4781371  43.2587687
  12.8448964  76.6054651  26.7794739  13.3573484  77.3997901  26.9300304
  13.4971677  75.9080941  26.7128340  14.6543848  79.7220407  28.8617492
  14.8310477  80.6438372  28.6738476  15.4500682  79.4078826  29.2911872
  13.9396205  71.7685039  38.7379655  13.8249720  70.8670296  39.0386754
  13.0840723  72.0148736  38.3864472  21.0188043  79.7102779  40.3367156
  20.5751897  78.9239158  40.0188060  21.6805256  79.8981930  39.6711047
  15.7775164  81.2398581  34.8627834  16.3282589  81.1115644  34.0904828
  14.9386640  81.5393470  34.5122727  23.1169281  79.9905579  38.3648557
  23.0987756  80.8114460  37.8728826  24.0389201  79.8659654  38.5898698
  19.5742335  77.5049709  39.2072066  20.1070672  76.7437997  38.9771374
  19.0456416  77.2123360  39.9496220  10.8097881  74.9343305  27.5554309
  11.6473103  75.3440313  27.3388017  10.9876148  73.9942747  27.5254503
  22.7062313  72.6018386  23.2438142  22.1908936  73.3722990  23.4826530
  22.4339621  71.9283522  23.8671204  20.2909424  67.4468086  28.3023381
  19.4351020  67.0574937  28.1229019  20.7036375  67.5260047  27.4423166
  18.0651456  65.0653159  31.7081122  18.9304453  64.8695968  31.3487012
  18.1328965  64.8363511  32.6350479  22.4948616  70.4745478  25.0697924
  22.1898751  70.7891627  25.9208067  23.4479058  70.5526898  25.1125257
  20.9395048  76.6335701  26.7190878  20.4116409  75.8988461  26.4064115
  20.4382550  77.4110377  26.4730846  15.6713775  67.2955367  29.0797489
  16.2457527  67.0730549  28.3470682  16.2584758  67.3644062  29.8326090
  15.9983362  69.3259828  23.0993374  15.1620675  69.6634515  23.4202649
  15.8588132  69.1908808  22.1620511  17.9736443  64.1696616  27.8072558
  17.3200855  63.8545633  27.1829173  17.9316917  63.5472357  28.5332381
  19.0847648  74.4515911  19.7225851  18.1774710  74.2205165  19.9217000
  19.5818680  73.6553531  19.9099832  21.9915727  83.1613419  22.6422537
  21.3177426  83.4645115  23.2507495  22.3781549  83.9642499  22.2927994
  21.2074183  70.6578550  32.1320206  20.2896745  70.8793497  31.9741894
  21.6234327  70.7324860  31.2731913  21.9909231  72.0569965  27.2622886
  22.7381050  72.5691363  26.9530008  22.2600821  71.7354018  28.1227280
  20.2635881  74.5528506  24.2449841  19.3547101  74.2687539  24.3422310
  20.2930965  74.9727585  23.3853148  25.4955149  78.1635096  28.0141008
  25.0417476  77.3226006  28.0706199  24.8649115  78.7996494  28.3515788
  23.9388088  80.0011592  28.9490826  24.2311062  80.5616650  28.2303192
  24.4486709  80.2940153  29.7043985  10.8324052  72.2734020  28.2265043
  10.6348452  71.6803381  27.5016109  10.2770716  71.9686231  28.9440982
  18.8120775  72.1657127  30.3459636  18.8669385  71.2130963  30.2702113
  18.0011977  72.3216566  30.8300934  19.9611969  76.0937250  21.5837919
  19.5231399  75.3773109  21.1243557  20.7022410  76.3213365  21.0223011
  16.7513135  70.7834187  28.1050015  15.9381001  71.0828357  28.5115207
  17.2472129  70.3889875  28.8224497  18.9021713  80.7791943  30.0384280
  18.8597892  81.0052790  29.1092812  19.8184412  80.5455318  30.1870081
  22.3487347  71.2476011  36.9364909  22.7036735  71.4747484  37.7959375
  22.9959478  71.5794388  36.3142164  16.2427210  68.3552542  33.7211250
  16.8826589  68.2141301  33.0234213  15.4104741  68.0687055  33.3449852
  17.0187514  77.6554973  29.8346242  17.8128112  77.1605293  29.6328817
  16.3079206  77.1272836  29.4713948  21.8382358  80.0373068  34.1858610
  21.8919381  80.6064004  34.9536326  20.9697140  80.2074953  33.8212647
  13.3270277  71.7998054  25.9105995  12.3967866  71.7382510  26.1275957
  13.4227749  71.2774007  25.1142636  13.2455826  68.3252867  28.4984237
  13.5062644  69.2398200  28.3893397  14.0672999  67.8577310  28.6480849
  14.7180752  69.7390624  35.6683061  15.3903805  69.5307986  35.0195710
  13.8910538  69.5412710  35.2288293  24.0285122  76.6301417  40.7599275
  23.8770628  76.4011969  39.8429359  24.0189801  77.5872019  40.7730620
  20.7970458  74.2033330  35.7445542  21.7262518  74.3544490  35.5714509
  20.3761488  74.2917351  34.8894188  19.5958790  78.2283994  33.5144079
  19.4569876  77.8602779  34.3870017  18.8073386  78.7431634  33.3428037
  20.1906942  83.3293091  24.8569616  20.3658698  82.8581134  25.6715239
  19.5039730  83.9558857  25.0850877  21.1464005  77.6065597  30.9032917
  20.8113838  77.5666367  31.7990567  20.6467951  76.9410313  30.4303327
  15.1208249  73.0133227  36.4285498  14.9828047  72.2813466  37.0297037
  16.0313173  72.9242127  36.1469686  24.0823197  74.9521632  21.1769977
  23.4652367  74.2268460  21.0803030  23.6139685  75.7130992  20.8337051
  17.7490550  72.7253187  35.9169178  18.4590168  72.0846379  35.8755796
  17.7059858  72.9766081  36.8395359  25.7377328  79.6620540  38.8375757
  25.6789875  78.9779760  38.1706340  26.1396847  80.4039530  38.3856383
  16.4619484  69.7118404  37.7364817  15.9256841  69.2609143  38.3886414
  15.8736192  69.8464313  36.9935282  14.7568027  86.4782454  31.6309476
  14.9964625  87.1100978  32.3088495  13.9137224  86.1270494  31.9174835
  15.8721743  69.1707056  20.2991281  14.9951209  69.0495857  19.9353528
  16.3479496  68.3793134  20.0470170  25.7394736  77.6260124  37.0689737
  24.8521514  77.2886046  37.1916136  26.3093287  76.8943155  37.3058502
   7.3923883  73.9584216  30.3932788   8.0794923  73.6445946  29.8053804
   7.2372011  74.8625580  30.1200040  12.1958605  68.8474412  34.8217812
  12.1116794  68.2400082  34.0868222  11.3741311  69.3383430  34.8227308
  19.2695889  82.2861576  34.0350980  19.1966061  83.0916548  34.5470285
  18.8273282  82.4853542  33.2099001  19.0585669  81.5233346  27.5453802
  18.2753191  82.0655026  27.6392026  19.7578414  82.0407326  27.9448043
  21.7294573  82.1848410  36.1909139  22.4422545  82.8195875  36.1185040
  21.2384601  82.2812276  35.3749141  23.4512099  76.0899663  27.7626430
  22.5168378  76.2101125  27.5931135  23.6288768  75.1872130  27.4986440
  18.9517288  69.4745359  29.9159692  18.5815075  68.9216399  30.6040597
  19.4476380  68.8703492  29.3634692  16.7806486  79.9342854  37.0114710
  17.4815946  80.5679337  37.1644104  16.3101601  80.2757585  36.2510349
  24.9060882  78.2760803  25.2962617  25.1820726  78.1617398  26.2056491
  24.0365381  77.8778288  25.2574790  24.5807772  72.4887461  34.8367260
  23.9279222  72.7363369  34.1819713  24.9588152  71.6751599  34.5029737
  21.5414946  82.5247154  28.9395430  21.7237340  81.7068810  29.4023183
  22.3647932  82.7414847  28.5020320  21.8757111  81.4515339  26.2010479
  22.4044878  80.9407794  25.5880641  22.1385331  81.1357870  27.0656012
  20.6295345  73.2307272  41.3233297  19.9535982  73.1301401  41.9935672
  21.4522979  73.0746486  41.7869294  12.3774204  79.4679209  33.9445812
  12.9627641  78.7222897  34.0773716  12.1799043  79.7783165  34.8282476
  15.2312859  82.5030456  28.9608255  14.5623235  82.9876584  28.4772295
  15.0925729  82.7499677  29.8751633   6.9691859  72.0384809  32.6650255
   7.0075958  71.5048400  33.4587373   6.4632152  71.5120014  32.0461233
  19.3718128  84.5374200  35.5590913  19.9236436  84.7005821  36.3239998
  19.7124321  85.1278637  34.8870938  14.3482621  66.8849349  36.1612798
  14.4123948  67.7464180  35.7490195  14.2849741  66.2723351  35.4285156
  13.8234894  68.9572482  39.8085832  14.4506933  68.5749559  40.4223356
  12.9662813  68.7386684  40.1741524  24.2229002  79.3635457  41.4139567
  24.7668906  79.9765415  40.9194522  23.6415847  79.9215036  41.9306580
  10.6000436  70.7648911  25.7404187  10.8953878  69.8559589  25.6871240
   9.6988472  70.7436651  25.4185189  22.5086515  82.4856175  32.5454595
  22.3837655  81.6845915  32.0365541  23.1665606  82.9802369  32.0568565
  14.1294683  68.8404908  31.7231735  13.4081269  69.4540875  31.5839209
  14.9187939  69.3762672  31.6448381  24.5721424  80.2865195  34.1734145
  23.6251759  80.1670546  34.1012472  24.9204197  79.3987693  34.2560407
  16.9320997  66.1759334  37.9972387  17.4555399  66.4221631  38.7598696
  16.7133330  67.0079369  37.5775524  12.3288278  68.4463009  25.8643512
  12.0000984  67.5660388  25.6818618  12.6827649  68.3910677  26.7519901
  21.5767857  80.0817911  30.3738497  21.4292819  79.1534619  30.5546067
  22.4021350  80.1038002  29.8895573  15.4430101  68.7335979  26.2318990
  15.7826174  69.2621900  25.5097598  15.8902222  69.0716385  27.0077556
  25.1801979  80.9046470  31.4603370  26.1048526  80.6989332  31.3227821
  25.0117282  80.6562871  32.3692712  18.1373542  67.1173029  35.6822058
  17.7970362  66.3180842  36.0842738  17.4312548  67.4174740  35.1098891
  18.7890014  64.2022342  34.1349381  19.6116083  63.7282820  34.0128271
  19.0328077  64.9812825  34.6348067  17.4298248  67.2310600  24.4312282
  18.1506611  67.6091853  23.9275999  16.8063552  67.9499477  24.5347260
  21.5729371  67.9355749  25.3670615  21.7892986  68.8180387  25.0659443
  21.0923438  67.5441963  24.6376257  16.3128593  70.8941462  31.9441359
  16.1673173  71.2081765  32.8365641  15.8353796  71.5126363  31.3912258
  18.1724976  67.8844010  31.9922249  18.1586544  66.9885104  31.6554547
  18.8897404  67.8914674  32.6260535  20.0251106  68.3181351  34.0375376
  19.7668884  69.2398421  34.0359707  19.4936147  67.9211785  34.7275840
  24.9697295  81.4232138  26.8165462  25.1434173  80.8578560  26.0639314
  25.4626186  82.2233033  26.6344952  10.7874255  73.4346807  34.8829020
  10.2427723  74.2106615  35.0149295  11.6653605  73.7817611  34.7248142
  17.5761871  66.7658391  27.2609819  17.6977783  65.8375037  27.4600706
  17.2863914  66.7797077  26.3488134  20.4453062  64.4513301  30.3976539
  20.4674759  64.5152634  29.4428518  20.8621121  63.6117810  30.5917045
  25.9572467  80.7398902  23.9162360  26.6523372  81.3605595  24.1349675
  26.2995618  79.8894253  24.1914738  11.5740277  72.5616703  37.7759177
  10.8322013  72.7099338  38.3623808  11.2533021  72.8224969  36.9125927
  19.5183939  82.1032681  37.5739567  19.8271066  81.8581828  38.4462267
  20.3159421  82.3079320  37.0858438  19.5404551  84.2570591  29.8044944
  19.1009542  83.7646970  30.4977801  20.2912668  83.7143559  29.5637019
  12.0196890  80.4482132  29.8069572  12.8454910  80.1485904  29.4268216
  11.6690942  79.6789754  30.2559361  16.9878424  79.8008600  31.8767246
  16.3658433  79.1379305  31.5769473  17.6583290  79.8269732  31.1940893
  10.2205495  78.3668458  30.7658506   9.3837404  77.9390633  30.5842507
  10.1929141  78.5600902  31.7029297  17.0602951  68.2790388  41.4699752
  17.1091106  69.1552511  41.0877521  17.6025465  67.7367781  40.8971395
  27.5457797  78.8231511  40.7500889  26.7553340  78.8055650  40.2105388
  27.3091151  79.3619805  41.5049925  16.5491930  78.3512523  25.3525706
  16.6980051  79.0347988  24.6992379  17.3558374  78.3317613  25.8675162
  19.2902239  69.0321760  38.2246110  18.4205549  69.3255326  37.9528699
  19.5261720  69.6162205  38.9453374  14.3044563  74.3777701  26.3586775
  14.0590605  73.4740031  26.5566985  14.4740478  74.3794851  25.4166253
  13.5740211  70.1106058  23.8572936  12.8809456  70.1850413  23.2012972
  13.3291963  69.3466402  24.3794453  22.2453867  61.6701660  31.2612427
  22.5255621  61.0024849  31.8872854  23.0304474  61.8630755  30.7487091
  20.0487336  80.8460654  22.8237454  19.4761303  81.4650841  22.3707925
  20.6220130  81.3960015  23.3577375  23.2684596  81.1297804  23.9546036
  24.2015269  81.0643366  24.1578911  23.1807809  81.9654071  23.4960568
  25.8972612  80.4463674  20.9149983  25.8186244  80.1123538  21.8085741
  26.7182279  80.9385442  20.9141456  20.4334134  72.1821466  20.1653506
  21.3793239  72.0527675  20.2341924  20.0548379  71.4436128  20.6422934
  20.3172827  76.2339213  41.6254163  21.2375836  76.4117812  41.8194210
  20.2822410  75.2895258  41.4733862  18.6177052  70.1071443  20.1008391
  17.7108507  69.8104556  20.1771105  18.8953033  69.8101261  19.2342677
   9.5354992  71.4277806  30.5507438   9.2157776  70.5743114  30.2581812
   8.9888420  71.6426384  31.3065405  13.3134900  74.1440247  34.2676944
  13.5320909  75.0757355  34.2864978  13.7260673  73.7848222  35.0531748
  20.2339117  64.6508333  26.2552633  19.4239846  64.3055418  26.6307879
  20.9223534  64.3415876  26.8440244  22.1629666  63.7286379  27.8776929
  22.7160704  64.1481833  28.5366952  22.3999752  62.8022127  27.9199885
  17.3875836  66.9658378  20.2420370  18.2495000  67.2913276  20.5016188
  17.5726180  66.1789874  19.7293436   9.4043252  75.0480718  32.5200559
   8.7106723  74.6334671  32.0070514  10.1516243  75.0901254  31.9233978
  18.0494035  73.1470592  42.4744755  17.5661117  73.9470952  42.6808644
  18.1354974  73.1578537  41.5212199  11.3179994  74.9798972  30.3966574
  11.2950683  75.0786659  29.4448457  11.6280631  75.8264122  30.7183740
  13.9767372  77.0375127  34.5113189  14.9310626  77.0059069  34.4443120
  13.7779896  76.5765750  35.3263414  14.5666755  75.6076243  37.0783986
  15.3859643  76.1020321  37.1018823  14.8403562  74.6908211  37.0501554
  24.3233351  67.9986995  26.4411942  23.4359206  68.2836646  26.2232136
  24.7387340  67.8380758  25.5939219  12.3317601  82.5794746  31.5283386
  12.1972069  81.8195147  30.9621384  11.9149663  83.3035646  31.0612175
  23.4676564  77.7631670  20.5359962  24.1712414  77.9681672  21.1517617
  22.7439213  78.3308431  20.8009045  24.2974374  73.5141531  26.6562232
  24.2409576  73.9710082  25.8169864  24.8502717  72.7532215  26.4785075
  15.4886727  83.4764063  31.7401829  15.3719111  84.4209496  31.6380519
  14.6679173  83.1737625  32.1287628  25.3763262  78.2014199  22.5858422
  26.2108866  77.7695397  22.4035897  25.2147604  78.0296212  23.5135316
  25.0309154  74.7046312  23.9514761  24.9757958  74.5390584  23.0103205
  24.4055209  75.4122345  24.1076951   9.8201669  69.9414376  37.7776183
  10.4660532  69.4313330  38.2663408   9.6118820  70.6783058  38.3519609
  22.3455061  77.0095224  43.2768324  23.2146221  77.1835876  42.9154959
  21.8661812  77.8289641  43.1544053  18.3405279  64.2054421  23.5300079
  18.3283949  65.1496261  23.6868350  19.2328701  64.0224567  23.2359541
  16.5141241  84.1292325  34.9557757  17.4168488  84.1615935  35.2724252
  16.2878611  83.1992776  34.9704093  18.2694843  82.8823312  31.6167836
  17.3190474  82.8825173  31.5032208  18.5727329  82.1356046  31.1003871
  22.1557399  60.7997198  27.7846016  21.3889794  60.2455684  27.9302699
  22.5668104  60.8719067  28.6460168  14.1599160  67.0881994  41.8751197
  15.0230621  66.7318798  42.0854522  13.5864570  66.7495888  42.5626602
  34.0047537  88.7183850  32.6813598  34.6425947  88.5990597  31.9776939
  33.8868380  89.6664694  32.7401551  30.8137243  88.6711278  32.6175123
  30.4755754  88.5552343  31.7295658  31.6827011  88.2702443  32.5976129
  26.6724059  90.5246754  28.6072014  26.1088924  90.4336691  27.8388302
  26.5576454  89.7046659  29.0874507  31.2957026  89.8246130  38.5761329
  31.2845667  89.4298928  37.7041832  31.4577665  89.0912202  39.1695100
  24.2188491  92.0197946  31.4456235  25.0109783  91.6788771  31.0302534
  24.4585141  92.1292921  32.3658388  32.2523617  94.1917722  23.9186479
  31.6011597  94.7771803  23.5320493  33.0467980  94.7223917  23.9781517
  26.1779245  91.2806859  24.3173613  26.9510121  90.7335846  24.1786489
  26.5304643  92.1451109  24.5288075  28.0164287  92.6083242  37.5240513
  27.7254153  93.5128872  37.4087179  28.6521271  92.6499769  38.2384582
  28.5145522  87.4399525  21.9492063  28.7671043  86.9181047  21.1875526
  27.5770081  87.2765671  22.0518747  33.5588805  86.4435304  29.7566807
  34.3451894  86.0254727  29.4057224  33.8227509  87.3481396  29.9248455
  33.7298883  91.8808154  24.4555463  33.0944715  91.9542781  25.1676368
  33.3996289  92.4701753  23.7774543  38.9597232  86.3810537  30.6599785
  39.6922404  85.8109754  30.8937615  38.2036588  85.9932137  31.1006291
  28.2341811  89.3427631  24.1516438  28.1178069  88.6672535  24.8197523
  28.3444071  88.8560005  23.3348591  30.5773352  88.8037778  27.8563128
  30.2131559  88.2768399  28.5676049  31.4340468  88.4136248  27.6829613
  30.2178839  83.8327678  22.8524476  30.3853241  84.7007915  23.2194947
  30.0276008  83.9954960  21.9285765  32.9754172  92.2944657  34.5190306
  32.6754895  93.1969696  34.4106114  32.6305232  92.0276840  35.3711459
  26.4266654  88.7458454  30.5527011  25.5017150  88.6134668  30.7604703
  26.6751067  89.5252673  31.0496953  36.3751316  84.8127197  32.1987744
  35.4668193  84.7442606  31.9046505  36.3238912  85.2899142  33.0269569
  30.1968060  86.2885336  23.8371143  30.0767685  86.7342386  24.6756623
  29.5020648  86.6370653  23.2784681  23.7875465  88.3891727  31.3870800
  23.9167846  88.6426206  32.3010212  23.1072916  88.9819435  31.0675455
  27.9574952  99.0588977  27.4861274  27.8798982 100.0096802  27.5649755
  27.3536596  98.7134850  28.1436200  35.8953126  86.7606809  24.6651477
  36.8070982  86.9934196  24.4899174  35.3862773  87.3443853  24.1026555
  28.7038554  89.0402296  39.7040608  29.4453238  89.5787340  39.4275432
  27.9975540  89.6668585  39.8612160  34.1793894  91.1831437  38.3012769
  34.5877250  90.7413847  37.5567402  33.4571155  90.6084064  38.5546962
  30.5324964  86.1204043  35.6746326  31.3786159  86.5443457  35.8180975
  30.4723601  85.4637668  36.3684890  34.5022708  91.7432627  32.0565058
  33.8731571  91.9078341  31.3541126  34.1148370  92.1574237  32.8276022
  38.3811940  92.6787065  29.4109422  37.6962978  93.0585966  28.8606455
  38.4655790  93.2882392  30.1441370  35.6362872  90.3247024  36.0104766
  35.8479767  90.9678784  35.3339147  35.5892620  89.4909341  35.5426696
  30.0550670  91.4807035  29.3215143  30.5189016  91.7594738  28.5319766
  29.7907468  90.5790480  29.1388234  26.9474751  91.0278517  32.2594907
  27.5176108  91.4565785  31.6212391  27.5382863  90.7461102  32.9579092
  28.9919556  87.6030188  26.1304709  29.6943600  88.0551231  26.5978635
  28.6600185  86.9614007  26.7584602  27.4399918  86.1941944  40.5055918
  26.8098578  86.8758225  40.7391315  27.3336006  86.0825026  39.5609056
  22.7344890  85.8613740  31.4321842  21.9443944  86.1171269  30.9561953
  23.2256138  86.6762078  31.5373883  36.7508700  93.2018980  34.1827123
  37.5726144  92.7999167  33.9009805  36.7471103  93.0987214  35.1343239
  24.6859636  86.2258320  28.3905319  23.8890799  86.3377014  28.9088815
  24.4585228  86.5644972  27.5246209  30.5165303  92.7503023  36.3387833
  30.5809736  93.2123430  37.1746005  29.8076227  92.1200388  36.4670143
  21.0182593  86.1144231  33.8636833  21.2690632  86.9991241  34.1294409
  21.5542142  85.9348832  33.0911925  44.8414693  89.5457728  30.5312094
  44.0878401  88.9765126  30.3756099  44.9762234  89.5120393  31.4782729
  30.2313321  94.4171130  26.2066814  30.0958996  95.2622666  26.6351662
  30.7723133  94.6190408  25.4432748  26.7180661  80.4962710  42.8681169
  26.3247606  79.9428909  43.5428813  27.5346801  80.8073289  43.2587687
  23.6842718  91.9346568  26.7794739  24.1967239  92.7289819  26.9300304
  24.3365431  91.2372859  26.7128340  25.4937603  95.0512325  28.8617492
  25.6704231  95.9730289  28.6738476  26.2894437  94.7370744  29.2911872
  29.6348622  81.9120589  40.4601426  30.3758335  82.5127742  40.3805888
  29.8666544  81.1698227  39.9019468  24.7789960  87.0976957  38.7379655
  24.6643475  86.1962214  39.0386754  23.9234477  87.3440653  38.3864472
  31.8581797  95.0394697  40.3367156  31.4145651  94.2531075  40.0188060
  32.5199011  95.2273847  39.6711047  26.6168918  96.5690498  34.8627834
  27.1676344  96.4407562  34.0904828  25.7780394  96.8685387  34.5122727
  33.9563035  95.3197497  38.3648557  33.9381511  96.1406378  37.8728826
  34.8782955  95.1951572  38.5898698  30.4136089  92.8341626  39.2072066
  30.9464426  92.0729914  38.9771374  29.8850171  92.5415278  39.9496220
  21.6491635  90.2635223  27.5554309  22.4866857  90.6732231  27.3388017
  21.8269903  89.3234665  27.5254503  33.5456067  87.9310303  23.2438142
  33.0302691  88.7014908  23.4826530  33.2733376  87.2575440  23.8671204
  38.5190341  90.6842658  25.1791316  37.7419784  90.3453817  24.7346478
  39.1981822  90.6895281  24.5046281  33.3342370  85.8037395  25.0697924
  33.0292506  86.1183545  25.9208067  34.2872812  85.8818815  25.1125257
  31.7788802  91.9627619  26.7190878  31.2510164  91.2280378  26.4064115
  31.2776305  92.7402295  26.4730846  36.7581648  90.1576639  31.8357924
  36.1005323  90.8475901  31.9238052  37.5622047  90.5473071  32.1791910
  26.5107530  82.6247285  29.0797489  27.0851282  82.4022467  28.3470682
  27.0978512  82.6935980  29.8326090  35.5687107  88.5121012  29.8861866
  36.0818989  89.1451004  30.3883575  36.2188331  87.9122207  29.5205226
  26.8377117  84.6551746  23.0993374  26.0014429  84.9926433  23.4202649
  26.6981887  84.5200726  22.1620511  29.9241402  89.7807829  19.7225851
  29.0168464  89.5497082  19.9217000  30.4212434  88.9845448  19.9099832
  32.8309481  98.4905336  22.6422537  32.1571180  98.7937033  23.2507495
  33.2175303  99.2934417  22.2927994  32.0467938  85.9870467  32.1320206
  31.1290499  86.2085414  31.9741894  32.4628082  86.0616778  31.2731913
  32.8302986  87.3861883  27.2622886  33.5774805  87.8983280  26.9530008
  33.0994575  87.0645936  28.1227280  31.1029636  89.8820424  24.2449841
  30.1940855  89.5979457  24.3422310  31.1324720  90.3019502  23.3853148
  36.3348903  93.4927013  28.0141008  35.8811230  92.6517923  28.0706199
  35.7042870  94.1288412  28.3515788  35.2781823  84.4218999  29.2441676
  34.5404580  83.9096386  29.5751918  35.5308596  83.9819381  28.4324953
  34.7781842  95.3303510  28.9490826  35.0704817  95.8908567  28.2303192
  35.2880463  95.6232071  29.7043985  21.6717806  87.6025938  28.2265043
  21.4742206  87.0095299  27.5016109  21.1164470  87.2978148  28.9440982
  29.6514530  87.4949044  30.3459636  29.7063140  86.5422881  30.2702113
  28.8405732  87.6508484  30.8300934  30.8005724  91.4229168  21.5837919
  30.3625154  90.7065026  21.1243557  31.5416164  91.6505282  21.0223011
  27.5906890  86.1126104  28.1050015  26.7774755  86.4120275  28.5115207
  28.0865884  85.7181793  28.8224497  29.7415468  96.1083861  30.0384280
  29.6991646  96.3344707  29.1092812  30.6578167  95.8747236  30.1870081
  38.9178838  89.6986365  27.6414238  38.7796737  89.8887961  26.7135427
  38.5615057  90.4605747  28.0982289  27.0820965  83.6844460  33.7211250
  27.7220344  83.5433219  33.0234213  26.2498495  83.3978973  33.3449852
  38.9448218  91.7662892  32.6525509  39.3784725  91.6738181  33.5008563
  39.6579799  91.7420392  32.0145525  27.8581268  92.9846890  29.8346242
  28.6521867  92.4897210  29.6328817  27.1472961  92.4564753  29.4713948
  32.6776113  95.3664986  34.1858610  32.7313135  95.9355922  34.9536326
  31.8090894  95.5366871  33.8212647  24.1664032  87.1289972  25.9105995
  23.2361620  87.0674427  26.1275957  24.2621504  86.6065925  25.1142636
  24.0849581  83.6544785  28.4984237  24.3456398  84.5690118  28.3893397
  24.9066753  83.1869227  28.6480849  25.5574506  85.0682542  35.6683061
  26.2297560  84.8599904  35.0195710  24.7304293  84.8704628  35.2288293
  39.8063768  91.8086592  35.1858395  39.9999658  92.7132403  35.4317670
  39.7064386  91.3494011  36.0196980  34.8678876  91.9593335  40.7599275
  34.7164383  91.7303887  39.8429359  34.8583556  92.9163936  40.7730620
  31.6364213  89.5325248  35.7445542  32.5656273  89.6836407  35.5714509
  31.2155243  89.6209269  34.8894188  30.4352544  93.5575912  33.5144079
  30.2963630  93.1894697  34.3870017  29.6467141  94.0723552  33.3428037
  31.0300696  98.6585009  24.8569616  31.2052452  98.1873052  25.6715239
  30.3433484  99.2850775  25.0850877  31.9857760  92.9357515  30.9032917
  31.6507592  92.8958285  31.7990567  31.4861705  92.2702231  30.4303327
  25.9602004  88.3425145  36.4285498  25.8221801  87.6105384  37.0297037
  26.8706927  88.2534045  36.1469686  34.9216951  90.2813549  21.1769977
  34.3046122  89.5560377  21.0803030  34.4533440  91.0422909  20.8337051
  28.5884304  88.0545104  35.9169178  29.2983923  87.4138296  35.8755796
  28.5453612  88.3057999  36.8395359  36.5771083  94.9912458  38.8375757
  36.5183629  94.3071678  38.1706340  36.9790601  95.7331448  38.3856383
  27.3013238  85.0410322  37.7364817  26.7650595  84.5901061  38.3886414
  26.7129947  85.1756231  36.9935282  25.5961782 101.8074371  31.6309476
  25.8358380 102.4392896  32.3088495  24.7530978 101.4562411  31.9174835
  26.7115497  84.4998974  20.2991281  25.8344963  84.3787774  19.9353528
  27.1873250  83.7085052  20.0470170  36.5788490  92.9552041  37.0689737
  35.6915269  92.6177963  37.1916136  37.1487041  92.2235073  37.3058502
  18.2317637  89.2876133  30.3932788  18.9188677  88.9737863  29.8053804
  18.0765766  90.1917498  30.1200040  23.0352359  84.1766330  34.8217812
  22.9510548  83.5691999  34.0868222  22.2135066  84.6675348  34.8227308
  30.1089644  97.6153494  34.0350980  30.0359815  98.4208465  34.5470285
  29.6667037  97.8145460  33.2099001  29.8979423  96.8525264  27.5453802
  29.1146945  97.3946944  27.6392026  30.5972168  97.3699244  27.9448043
  41.0605831  88.3660259  31.8306299  41.0495707  89.2484974  31.4600232
  40.1923210  88.0131810  31.6360836  32.5688327  97.5140328  36.1909139
  33.2816299  98.1487793  36.1185040  32.0778356  97.6104194  35.3749141
  34.2905854  91.4191581  27.7626430  33.3562133  91.5393043  27.5931135
  34.4682522  90.5164047  27.4986440  29.7911042  84.8037276  29.9159692
  29.4208830  84.2508317  30.6040597  30.2870134  84.1995410  29.3634692
  37.6778405  87.2608900  28.2976465  38.1438858  88.0936891  28.2236767
  38.1285906  86.7953881  29.0021723  27.6200241  95.2634771  37.0114710
  28.3209700  95.8971254  37.1644104  27.1495356  95.6049503  36.2510349
  35.7454636  93.6052721  25.2962617  36.0214480  93.4909316  26.2056491
  34.8759135  93.2070206  25.2574790  35.4201527  87.8179379  34.8367260
  34.7672977  88.0655286  34.1819713  35.7981906  87.0043517  34.5029737
  32.3808700  97.8539072  28.9395430  32.5631095  97.0360728  29.4023183
  33.2041686  98.0706764  28.5020320  32.7150866  96.7807257  26.2010479
  33.2438632  96.2699712  25.5880641  32.9779086  96.4649787  27.0656012
  31.4689100  88.5599190  41.3233297  30.7929737  88.4593319  41.9935672
  32.2916733  88.4038404  41.7869294  23.2167959  94.7971126  33.9445812
  23.8021395  94.0514814  34.0773716  23.0192797  95.1075083  34.8282476
  26.0706614  97.8322374  28.9608255  25.4016989  98.3168501  28.4772295
  25.9319484  98.0791594  29.8751633  17.8085613  87.3676727  32.6650255
  17.8469713  86.8340317  33.4587373  17.3025906  86.8411932  32.0461233
  30.2111882  99.8666117  35.5590913  30.7630191 100.0297739  36.3239998
  30.5518076 100.4570555  34.8870938  25.1876376  82.2141267  36.1612798
  25.2517702  83.0756098  35.7490195  25.1243496  81.6015269  35.4285156
  24.6628648  84.2864400  39.8085832  25.2900687  83.9041477  40.4223356
  23.8056567  84.0678602  40.1741524  35.0622757  94.6927375  41.4139567
  35.6062661  95.3057333  40.9194522  34.4809602  95.2506953  41.9306580
  21.4394191  86.0940829  25.7404187  21.7347632  85.1851507  25.6871240
  20.5382227  86.0728568  25.4185189  33.3480270  97.8148093  32.5454595
  33.2231409  97.0137833  32.0365541  34.0059361  98.3094286  32.0568565
  24.9688438  84.1696825  31.7231735  24.2475024  84.7832793  31.5839209
  25.7581694  84.7054590  31.6448381  35.4115178  95.6157113  34.1734145
  34.4645514  95.4962464  34.1012472  35.7597951  94.7279611  34.2560407
  23.1682033  83.7754926  25.8643512  22.8394739  82.8952305  25.6818618
  23.5221403  83.7202595  26.7519901  32.4161611  95.4109829  30.3738497
  32.2686574  94.4826537  30.5546067  33.2415105  95.4329920  29.8895573
  26.2823856  84.0627896  26.2318990  26.6219928  84.5913817  25.5097598
  26.7295976  84.4008302  27.0077556  36.0195733  96.2338388  31.4603370
  36.9442281  96.0281249  31.3227821  35.8511037  95.9854789  32.3692712
  27.1522347  86.2233380  31.9441359  27.0066928  86.5373683  32.8365641
  26.6747551  86.8418280  31.3912258  29.0118730  83.2135928  31.9922249
  28.9980299  82.3177021  31.6554547  29.7291158  83.2206592  32.6260535
  30.8644861  83.6473268  34.0375376  30.6062639  84.5690339  34.0359707
  30.3329901  83.2503703  34.7275840  35.8091049  96.7524055  26.8165462
  35.9827927  96.1870478  26.0639314  36.3019941  97.5524950  26.6344952
  21.6268009  88.7638724  34.8829020  21.0821477  89.5398532  35.0149295
  22.5047359  89.1109529  34.7248142  41.6630441  89.5160478  28.4355761
  42.1061587  88.7667803  28.0374885  40.7856951  89.5070615  28.0529493
  36.7966222  96.0690820  23.9162360  37.4917127  96.6897512  24.1349675
  37.1389372  95.2186171  24.1914738  22.4134031  87.8908621  37.7759177
  21.6715767  88.0391256  38.3623808  22.0926775  88.1516886  36.9125927
  38.6957645  93.5190525  25.4449691  39.2208969  93.8577798  24.7199011
  38.6079998  92.5837541  25.2612825  30.3577694  97.4324599  37.5739567
  30.6664820  97.1873746  38.4462267  31.1553176  97.6371237  37.0858438
  30.3798306  99.5862509  29.8044944  29.9403296  99.0938887  30.4977801
  31.1306423  99.0435476  29.5637019  22.8590645  95.7774049  29.8069572
  23.6848665  95.4777821  29.4268216  22.5084697  95.0081672  30.2559361
  27.8272178  95.1300518  31.8767246  27.2052187  94.4671223  31.5769473
  28.4977045  95.1561649  31.1940893  21.0599250  93.6960376  30.7658506
  20.2231158  93.2682550  30.5842507  21.0322895  93.8892819  31.7029297
  27.8996705  83.6082306  41.4699752  27.9484861  84.4844428  41.0877521
  28.4419220  83.0659699  40.8971395  38.3851551  94.1523429  40.7500889
  37.5947095  94.1347568  40.2105388  38.1484906  94.6911723  41.5049925
  38.5049426  91.0015895  38.0633617  38.5547431  90.8365903  39.0049140
  38.3963350  90.1343154  37.6731498  27.3885685  93.6804441  25.3525706
  27.5373805  94.3639905  24.6992379  28.1952128  93.6609531  25.8675162
  30.1295994  84.3613678  38.2246110  29.2599303  84.6547244  37.9528699
  30.3655474  84.9454123  38.9453374  40.0067623  93.4212837  38.3075639
  39.7152431  93.7842817  39.1439100  39.3939754  92.7079845  38.1288971
  41.2063305  90.9865717  30.8278209  42.0410197  91.4255521  30.9915769
  41.3422434  90.5104370  30.0086455  25.1438318  89.7069619  26.3586775
  24.8984360  88.8031949  26.5566985  25.3134232  89.7086769  25.4166253
  24.4133965  85.4397976  23.8572936  23.7203210  85.5142331  23.2012972
  24.1685717  84.6758320  24.3794453  30.8881090  96.1752571  22.8237454
  30.3155058  96.7942759  22.3707925  31.4613884  96.7251933  23.3577375
  34.1078350  96.4589722  23.9546036  35.0409023  96.3935283  24.1578911
  34.0201563  97.2945988  23.4960568  36.7366367  95.7755592  20.9149983
  36.6579998  95.4415455  21.8085741  37.5576034  96.2677360  20.9141456
  39.4344558  88.6417331  34.1226302  39.4020878  87.7033332  34.3085986
  40.0445182  88.7201368  33.3892127  31.2727889  87.5113384  20.1653506
  32.2186994  87.3819592  20.2341924  30.8942134  86.7728046  20.6422934
  45.2521108  89.7033338  33.2632339  45.9824496  89.4418626  33.8240042
  44.6428053  88.9662060  33.3034407  43.3336405  87.8441201  33.8606790
  42.6069569  87.7097166  33.2523282  42.9183692  88.1518029  34.6663508
  31.1566581  91.5631130  41.6254163  32.0769591  91.7409729  41.8194210
  31.1216165  90.6187176  41.4733862  29.4570806  85.4363361  20.1008391
  28.5502261  85.1396473  20.1771105  29.7346787  85.1393179  19.2342677
  20.3748746  86.7569724  30.5507438  20.0551531  85.9035032  30.2581812
  19.8282175  86.9718302  31.3065405  24.1528654  89.4732165  34.2676944
  24.3714664  90.4049273  34.2864978  24.5654428  89.1140139  35.0531748
  29.0256519  85.0465371  43.6579693  28.9253246  85.9959728  43.5891784
  28.8078061  84.7183610  42.7855763  28.2269591  82.2950296  20.2420370
  29.0888755  82.6205194  20.5016188  28.4119935  81.5081792  19.7293436
  20.2437006  90.3772635  32.5200559  19.5500478  89.9626588  32.0070514
  20.9909997  90.4193172  31.9233978  28.8887789  88.4762510  42.4744755
  28.4054871  89.2762870  42.6808644  28.9748728  88.4870454  41.5212199
  22.1573749  90.3090889  30.3966574  22.1344437  90.4078576  29.4448457
  22.4674385  91.1556040  30.7183740  24.8161127  92.3667044  34.5113189
  25.7704380  92.3350987  34.4443120  24.6173650  91.9057668  35.3263414
  25.4060509  90.9368160  37.0783986  26.2253398  91.4312239  37.1018823
  25.6797317  90.0200128  37.0501554  23.1711356  97.9086664  31.5283386
  23.0365824  97.1487065  30.9621384  22.7543418  98.6327564  31.0612175
  34.3070319  93.0923587  20.5359962  35.0106169  93.2973590  21.1517617
  33.5832967  93.6600349  20.8009045  35.1368129  88.8433449  26.6562232
  35.0803330  89.3002000  25.8169864  35.6896471  88.0824133  26.4785075
  38.9472935  84.6323180  27.4812351  38.6909869  84.2319816  28.3120559
  38.3225803  85.3466974  27.3562491  43.2585273  87.3719254  29.9883643
  42.6984831  87.4412443  30.7615205  42.6528776  87.1960238  29.2683139
  26.3280482  98.8055981  31.7401829  26.2112866  99.7501413  31.6380519
  25.5072928  98.5029542  32.1287628  36.2157016  93.5306116  22.5858422
  37.0502620  93.0987315  22.4035897  36.0541359  93.3588130  23.5135316
  35.8702908  90.0338230  23.9514761  35.8151712  89.8682501  23.0103205
  35.2448964  90.7414263  24.1076951  20.6595423  85.2706294  37.7776183
  21.3054287  84.7605248  38.2663408  20.4512574  86.0074976  38.3519609
  33.1848815  92.3387142  43.2768324  34.0539975  92.5127794  42.9154959
  32.7055567  93.1581558  43.1544053  27.3534996  99.4584243  34.9557757
  28.2562242  99.4907853  35.2724252  27.1272366  98.5284694  34.9704093
  29.1088598  98.2115229  31.6167836  28.1584229  98.2117091  31.5032208
  29.4121084  97.4647964  31.1003871  24.9992914  82.4173911  41.8751197
  25.8624376  82.0610716  42.0854522  24.4258325  82.0787806  42.5626602
  44.8441291 104.0475768  32.6813598  45.4819701 103.9282515  31.9776939
  44.7262134 104.9956612  32.7401551  41.6530997 104.0003196  32.6175123
  41.3149509 103.8844260  31.7295658  42.5220766 103.5994361  32.5976129
  37.5117813 105.8538672  28.6072014  36.9482678 105.7628609  27.8388302
  37.3970208 105.0338577  29.0874507  42.1350780 105.1538047  38.5761329
  42.1239421 104.7590846  37.7041832  42.2971420 104.4204120  39.1695100
  35.0582245 107.3489864  31.4456235  35.8503537 107.0080688  31.0302534
  35.2978895 107.4584839  32.3658388  43.0917372 109.5209640  23.9186479
  42.4405352 110.1063720  23.5320493  43.8861735 110.0515835  23.9781517
  37.0172999 106.6098777  24.3173613  37.7903875 106.0627764  24.1786489
  37.3698398 107.4743026  24.5288075  38.8558042 107.9375159  37.5240513
  38.5647908 108.8420790  37.4087179  39.4915026 107.9791687  38.2384582
  39.7814248 105.3152008  34.1141872  40.3777821 105.0908030  33.3998835
  39.8389220 104.5736753  34.7167320  39.3539277 102.7691443  21.9492063
  39.6064798 102.2472964  21.1875526  38.4163836 102.6057589  22.0518747
  44.3982560 101.7727221  29.7566807  45.1845649 101.3546645  29.4057224
  44.6621264 102.6773314  29.9248455  44.5692637 107.2100072  24.4555463
  43.9338470 107.2834698  25.1676368  44.2390043 107.7993671  23.7774543
  49.7990987 101.7102455  30.6599785  50.5316159 101.1401671  30.8937615
  49.0430342 101.3224055  31.1006291  39.0735566 104.6719549  24.1516438
  38.9571824 103.9964452  24.8197523  39.1837825 104.1851923  23.3348591
  41.4167107 104.1329696  27.8563128  41.0525314 103.6060317  28.5676049
  42.2734222 103.7428165  27.6829613  47.3216407  95.4224029  35.1194394
  46.9899732  96.2919440  34.8955609  46.7262021  95.1060313  35.7988424
  41.0572593  99.1619596  22.8524476  41.2246996 100.0299832  23.2194947
  40.8669763  99.3246878  21.9285765  43.8147927 107.6236575  34.5190306
  43.5148650 108.5261614  34.4106114  43.4698986 107.3568758  35.3711459
  37.2660408 104.0750372  30.5527011  36.3410905 103.9426586  30.7604703
  37.5144821 104.8544591  31.0496953  47.2145070 100.1419115  32.1987744
  46.3061948 100.0734523  31.9046505  47.1632666 100.6191060  33.0269569
  41.0361814 101.6177253  23.8371143  40.9161440 102.0634304  24.6756623
  40.3414403 101.9662571  23.2784681  34.6269219 103.7183645  31.3870800
  34.7561600 103.9718124  32.3010212  33.9466670 104.3111353  31.0675455
  41.2885936 101.5608761  40.1422641  40.5119270 102.1202681  40.1325506
  41.9276499 102.0465543  40.6637511  49.0806717  98.3435553  33.9765618
  48.4381097  98.6368086  33.3305412  48.5761645  98.2288474  34.7818814
  46.7346881 102.0898727  24.6651477  47.6464737 102.3226113  24.4899174
  46.2256528 102.6735771  24.1026555  39.5432309 104.3694214  39.7040608
  40.2846993 104.9079258  39.4275432  38.8369294 104.9960503  39.8612160
  45.0187648 106.5123354  38.3012769  45.4271004 106.0705765  37.5567402
  44.2964910 105.9375982  38.5546962  41.3718718 101.4495961  35.6746326
  42.2179913 101.8735375  35.8180975  41.3117356 100.7929585  36.3684890
  45.3416463 107.0724545  32.0565058  44.7125325 107.2370259  31.3541126
  44.9542125 107.4866155  32.8276022  49.2205695 108.0078983  29.4109422
  48.5356733 108.3877884  28.8606455  49.3049544 108.6174309  30.1441370
  44.5218164  99.1100329  37.3327500  44.2779095  99.8642390  36.7961776
  44.7978094  99.4885677  38.1674747  46.4756626 105.6538942  36.0104766
  46.6873522 106.2970702  35.3339147  46.4286375 104.8201258  35.5426696
  44.0782855  98.2656762  32.9141338  43.2167334  98.5638016  33.2058075
  44.1045290  98.4827161  31.9822370  40.8944425 106.8098953  29.3215143
  41.3582770 107.0886656  28.5319766  40.6301223 105.9082398  29.1388234
  37.7868506 106.3570435  32.2594907  38.3569863 106.7857703  31.6212391
  38.3776618 106.0753019  32.9579092  39.8313311 102.9322105  26.1304709
  40.5337354 103.3843149  26.5978635  39.4993939 102.2905924  26.7584602
  38.2793672 101.5233862  40.5055918  37.6492333 102.2050143  40.7391315
  38.1729760 101.4116944  39.5609056  33.5738645 101.1905658  31.4321842
  32.7837699 101.4463187  30.9561953  34.0649892 102.0053996  31.5373883
  47.5902454 108.5310897  34.1827123  48.4119898 108.1291085  33.9009805
  47.5864857 108.4279131  35.1343239  35.5253390 101.5550237  28.3905319
  34.7284553 101.6668932  28.9088815  35.2978982 101.8936890  27.5246209
  41.3559058 108.0794941  36.3387833  41.4203490 108.5415348  37.1746005
  40.6469982 107.4492305  36.4670143  31.8576348 101.4436149  33.8636833
  32.1084386 102.3283158  34.1294409  32.3935896 101.2640750  33.0911925
  55.6808447 104.8749646  30.5312094  54.9272156 104.3057044  30.3756099
  55.8155989 104.8412310  31.4782729  41.0707075 109.7463048  26.2066814
  40.9352750 110.5914584  26.6351662  41.6116888 109.9482326  25.4432748
  37.5574415  95.8254628  42.8681169  37.1641361  95.2720826  43.5428813
  38.3740555  96.1365206  43.2587687  34.5236473 107.2638486  26.7794739
  35.0360993 108.0581736  26.9300304  35.1759186 106.5664777  26.7128340
  36.3331357 110.3804242  28.8617492  36.5097986 111.3022207  28.6738476
  37.1288191 110.0662662  29.2911872  40.4742376  97.2412507  40.4601426
  41.2152089  97.8419660  40.3805888  40.7060299  96.4990145  39.9019468
  35.6183714 102.4268874  38.7379655  35.5037229 101.5254131  39.0386754
  34.7628232 102.6732571  38.3864472  42.6975552 110.3686615  40.3367156
  42.2539406 109.5822993  40.0188060  43.3592765 110.5565765  39.6711047
  44.7956790 110.6489414  38.3648557  44.7775265 111.4698296  37.8728826
  45.7176710 110.5243490  38.5898698  41.2529844 108.1633544  39.2072066
  41.7858181 107.4021832  38.9771374  40.7243925 107.8707196  39.9496220
  44.4199539  93.2693610  34.7365707  44.0763808  94.1595252  34.6604818
  44.7878502  93.0795268  33.8735292  32.4885390 105.5927140  27.5554309
  33.3260612 106.0024149  27.3388017  32.6663657 104.6526583  27.5254503
  44.3849822 103.2602221  23.2438142  43.8696445 104.0306826  23.4826530
  44.1127130 102.5867357  23.8671204  41.9696933  98.1051922  28.3023381
  41.1138529  97.7158772  28.1229019  42.3823884  98.1843883  27.4423166
  43.4996079  95.6398265  32.7014941  42.9960875  95.6028400  31.8882746
  43.7926686  96.5491008  32.7611597  39.7438965  95.7236995  31.7081122
  40.6091962  95.5279803  31.3487012  39.8116474  95.4947347  32.6350479
  49.3584096 106.0134576  25.1791316  48.5813539 105.6745735  24.7346478
  50.0375577 106.0187199  24.5046281  44.1736125 101.1329313  25.0697924
  43.8686260 101.4475462  25.9208067  45.1266567 101.2110733  25.1125257
  42.6182557 107.2919536  26.7190878  42.0903918 106.5572296  26.4064115
  42.1170059 108.0694213  26.4730846  47.5975403 105.4868557  31.8357924
  46.9399077 106.1767818  31.9238052  48.4015802 105.8764989  32.1791910
  37.3501284  97.9539203  29.0797489  37.9245036  97.7314384  28.3470682
  37.9372267  98.0227897  29.8326090  46.4080862 103.8412930  29.8861866
  46.9212743 104.4742921  30.3883575  47.0582085 103.2414125  29.5205226
  37.6770871  99.9843664  23.0993374  36.8408184 100.3218350  23.4202649
  37.5375641  99.8492644  22.1620511  39.6523952  94.8280452  27.8072558
  38.9988364  94.5129469  27.1829173  39.6104426  94.2056192  28.5332381
  40.7635157 105.1099747  19.7225851  39.8562219 104.8789000  19.9217000
  41.2606189 104.3137366  19.9099832  42.8861692 101.3162385  32.1320206
  41.9684254 101.5377332  31.9741894  43.3021836 101.3908696  31.2731913
  43.6696740 102.7153801  27.2622886  44.4168559 103.2275198  26.9530008
  43.9388330 102.3937854  28.1227280  41.9423390 105.2112342  24.2449841
  41.0334610 104.9271374  24.3422310  41.9718474 105.6311420  23.3853148
  47.1742658 108.8218931  28.0141008  46.7204985 107.9809841  28.0706199
  46.5436624 109.4580329  28.3515788  46.1175577  99.7510917  29.2441676
  45.3798334  99.2388303  29.5751918  46.3702351  99.3111299  28.4324953
  45.6175597 110.6595428  28.9490826  45.9098571 111.2200485  28.2303192
  46.1274218 110.9523989  29.7043985  46.2187205  92.5287169  29.8383445
  46.5246081  91.6684533  29.5509360  46.9439809  93.1204789  29.6382439
  32.5111561 102.9317856  28.2265043  32.3135961 102.3387216  27.5016109
  31.9558225 102.6270066  28.9440982  40.4908284 102.8240962  30.3459636
  40.5456894 101.8714799  30.2702113  39.6799486 102.9800401  30.8300934
  41.6399478 106.7521085  21.5837919  41.2018908 106.0356944  21.1243557
  42.3809919 106.9797200  21.0223011  38.4300644 101.4418022  28.1050015
  37.6168510 101.7412192  28.5115207  38.9259638 101.0473711  28.8224497
  40.5809222 111.4375779  30.0384280  40.5385401 111.6636625  29.1092812
  41.4971921 111.2039153  30.1870081  44.0274856 101.9059846  36.9364909
  44.3824244 102.1331320  37.7959375  44.6746987 102.2378223  36.3142164
  49.7572593 105.0278282  27.6414238  49.6190491 105.2179878  26.7135427
  49.4008812 105.7897665  28.0982289  37.9214719  99.0136377  33.7211250
  38.5614098  98.8725137  33.0234213  37.0892250  98.7270891  33.3449852
  49.7841972 107.0954809  32.6525509  50.2178479 107.0030098  33.5008563
  50.4973553 107.0712310  32.0145525  38.6975023 108.3138808  29.8346242
  39.4915621 107.8189128  29.6328817  37.9866715 107.7856671  29.4713948
  43.5169867 110.6956903  34.1858610  43.5706890 111.2647840  34.9536326
  42.6484649 110.8658788  33.8212647  35.0057786 102.4581890  25.9105995
  34.0755374 102.3966345  26.1275957  35.1015258 101.9357842  25.1142636
  34.9243335  98.9836702  28.4984237  35.1850153  99.8982036  28.3893397
  35.7460508  98.5161145  28.6480849  36.3968261 100.3974460  35.6683061
  37.0691314 100.1891822  35.0195710  35.5698047 100.1996546  35.2288293
  50.6457522 107.1378510  35.1858395  50.8393412 108.0424320  35.4317670
  50.5458140 106.6785929  36.0196980  42.2993833  97.0236401  37.6848722
  41.6521748  97.7226350  37.5913198  43.0694848  97.4572544  38.0524970
  45.7072631 107.2885253  40.7599275  45.5558137 107.0595804  39.8429359
  45.6977310 108.2455854  40.7730620  42.4757967 104.8617165  35.7445542
  43.4050027 105.0128325  35.5714509  42.0548997 104.9501186  34.8894188
  41.2746299 108.8867830  33.5144079  41.1357385 108.5186614  34.3870017
  40.4860895 109.4015469  33.3428037  42.8251514 108.2649433  30.9032917
  42.4901347 108.2250203  31.7990567  42.3255460 107.5994148  30.4303327
  36.7995758 103.6717063  36.4285498  36.6615556 102.9397301  37.0297037
  37.7100681 103.5825963  36.1469686  45.7610706 105.6105467  21.1769977
  45.1439876 104.8852295  21.0803030  45.2927194 106.3714827  20.8337051
  39.4278059 103.3837022  35.9169178  40.1377677 102.7430214  35.8755796
  39.3847367 103.6349917  36.8395359  47.4164837 110.3204375  38.8375757
  47.3577384 109.6363595  38.1706340  47.8184356 111.0623365  38.3856383
  38.1406993 100.3702240  37.7364817  37.6044350  99.9192978  38.3886414
  37.5523701 100.5048149  36.9935282  37.5509252  99.8290891  20.2991281
  36.6738718  99.7079692  19.9353528  38.0267005  99.0376969  20.0470170
  47.4182245 108.2843959  37.0689737  46.5309023 107.9469881  37.1916136
  47.9880796 107.5526990  37.3058502  29.0711392 104.6168051  30.3932788
  29.7582432 104.3029781  29.8053804  28.9159520 105.5209416  30.1200040
  33.8746114  99.5058247  34.8217812  33.7904303  98.8983917  34.0868222
  33.0528820  99.9967266  34.8227308  40.7373178 112.1817182  27.5453802
  39.9540700 112.7238862  27.6392026  41.4365923 112.6991161  27.9448043
  44.0469828  97.9911811  30.1888007  44.5438527  97.2381773  29.8689077
  43.2756809  98.0276128  29.6231216  51.8999585 103.6952177  31.8306299
  51.8889461 104.5776892  31.4600232  51.0316965 103.3423727  31.6360836
  43.4082082 112.8432246  36.1909139  44.1210054 113.4779710  36.1185040
  42.9172110 112.9396112  35.3749141  45.1299608 106.7483498  27.7626430
  44.1955887 106.8684961  27.5931135  45.3076277 105.8455965  27.4986440
  40.6304797 100.1329194  29.9159692  40.2602584  99.5800234  30.6040597
  41.1263889  99.5287327  29.3634692  48.5172160 102.5900818  28.2976465
  48.9832612 103.4228809  28.2236767  48.9679660 102.1245799  29.0021723
  38.4593995 110.5926689  37.0114710  39.1603455 111.2263172  37.1644104
  37.9889110 110.9341421  36.2510349  46.5848391 108.9344639  25.2962617
  46.8608235 108.8201233  26.2056491  45.7152890 108.5362124  25.2574790
  46.4888823  94.9581404  32.3367366  45.5751902  95.1885631  32.5049573
  46.9181924  95.0419849  33.1881398  46.2595281 103.1471296  34.8367260
  45.6066731 103.3947204  34.1819713  46.6375661 102.3335435  34.5029737
  43.2202455 113.1830990  28.9395430  43.4024849 112.3652646  29.4023183
  44.0435441 113.3998682  28.5020320  43.5544620 112.1099175  26.2010479
  44.0832387 111.5991629  25.5880641  43.8172840 111.7941705  27.0656012
  42.3082854 103.8891108  41.3233297  41.6323491 103.7885237  41.9935672
  43.1310488 103.7330321  41.7869294  34.0561713 110.1263044  33.9445812
  34.6415150 109.3806732  34.0773716  33.8586552 110.4367001  34.8282476
  28.6479368 102.6968644  32.6650255  28.6863467 102.1632235  33.4587373
  28.1419661 102.1703850  32.0461233  36.0270130  97.5433185  36.1612798
  36.0911457  98.4048016  35.7490195  35.9637250  96.9307186  35.4285156
  35.5022403  99.6156317  39.8085832  36.1294442  99.2333395  40.4223356
  34.6450322  99.3970519  40.1741524  45.9016511 110.0219292  41.4139567
  46.4456415 110.6349251  40.9194522  45.3203356 110.5798871  41.9306580
  32.2787945 101.4232746  25.7404187  32.5741387 100.5143425  25.6871240
  31.3775981 101.4020486  25.4185189  44.1874024 113.1440010  32.5454595
  44.0625164 112.3429750  32.0365541  44.8453115 113.6386204  32.0568565
  35.8082192  99.4988743  31.7231735  35.0868778 100.1124711  31.5839209
  36.5975448 100.0346508  31.6448381  46.2508933 110.9449031  34.1734145
  45.3039268 110.8254382  34.1012472  46.5991706 110.0571529  34.2560407
  38.6108506  96.8343170  37.9972387  39.1342908  97.0805466  38.7598696
  38.3920839  97.6663204  37.5775524  34.0075787  99.1046844  25.8643512
  33.6788493  98.2244223  25.6818618  34.3615158  99.0494513  26.7519901
  43.2555366 110.7401747  30.3738497  43.1080328 109.8118454  30.5546067
  44.0808859 110.7621838  29.8895573  37.1217610  99.3919814  26.2318990
  37.4613683  99.9205735  25.5097598  37.5689731  99.7300220  27.0077556
  46.8589488 111.5630306  31.4603370  47.7836035 111.3573167  31.3227821
  46.6904791 111.3146707  32.3692712  39.8161051  97.7756865  35.6822058
  39.4757871  96.9764678  36.0842738  39.1100057  98.0758575  35.1098891
  40.4677523  94.8606177  34.1349381  41.2903592  94.3866655  34.0128271
  40.7115586  95.6396661  34.6348067  39.1085757  97.8894435  24.4312282
  39.8294120  98.2675688  23.9275999  38.4851061  98.6083312  24.5347260
  43.2516880  98.5939584  25.3670615  43.4680495  99.4764222  25.0659443
  42.7710947  98.2025798  24.6376257  37.9916102 101.5525298  31.9441359
  37.8460682 101.8665601  32.8365641  37.5141305 102.1710198  31.3912258
  39.8512485  98.5427846  31.9922249  39.8374053  97.6468939  31.6554547
  40.5684913  98.5498509  32.6260535  41.7038615  98.9765186  34.0375376
  41.4456393  99.8982257  34.0359707  41.1723656  98.5795620  34.7275840
  46.6484804 112.0815973  26.8165462  46.8221682 111.5162395  26.0639314
  47.1413695 112.8816868  26.6344952  32.4661764 104.0930642  34.8829020
  31.9215232 104.8690450  35.0149295  33.3441114 104.4401447  34.7248142
  39.2549380  97.4242226  27.2609819  39.3765292  96.4958872  27.4600706
  38.9651423  97.4380912  26.3488134  42.1240571  95.1097136  30.3976539
  42.1462268  95.1736469  29.4428518  42.5408630  94.2701645  30.5917045
  52.5024195 104.8452396  28.4355761  52.9455341 104.0959721  28.0374885
  51.6250705 104.8362532  28.0529493  47.6359976 111.3982737  23.9162360
  48.3310881 112.0189430  24.1349675  47.9783127 110.5478089  24.1914738
  33.2527786 103.2200538  37.7759177  32.5109522 103.3683174  38.3623808
  32.9320530 103.4808804  36.9125927  49.5351400 108.8482443  25.4449691
  50.0602724 109.1869716  24.7199011  49.4473752 107.9129458  25.2612825
  41.1971448 112.7616517  37.5739567  41.5058575 112.5165663  38.4462267
  41.9946930 112.9663155  37.0858438  38.6665932 110.4592435  31.8767246
  38.0445942 109.7963140  31.5769473  39.3370799 110.4853567  31.1940893
  31.8993004 109.0252294  30.7658506  31.0624913 108.5974468  30.5842507
  31.8716650 109.2184737  31.7029297  38.7390460  98.9374223  41.4699752
  38.7878615  99.8136346  41.0877521  39.2812974  98.3951616  40.8971395
  49.2245306 109.4815347  40.7500889  48.4340849 109.4639485  40.2105388
  48.9878660 110.0203640  41.5049925  49.3443181 106.3307813  38.0633617
  49.3941186 106.1657820  39.0049140  49.2357104 105.4635072  37.6731498
  38.2279439 109.0096359  25.3525706  38.3767560 109.6931823  24.6992379
  39.0345883 108.9901449  25.8675162  46.6346943 102.3138741  39.3792924
  47.5356806 102.1745206  39.0876922  46.7094918 102.4793196  40.3191101
  40.9689748  99.6905596  38.2246110  40.0993058  99.9839162  37.9528699
  41.2049229 100.2746041  38.9453374  50.8461378 108.7504754  38.3075639
  50.5546186 109.1134735  39.1439100  50.2333509 108.0371763  38.1288971
  52.0457060 106.3157634  30.8278209  52.8803951 106.7547438  30.9915769
  52.1816189 105.8396287  30.0086455  49.0948566 103.8737369  36.7755697
  49.5702687 104.0665015  35.9674548  48.1714131 103.9296555  36.5299080
  35.9832072 105.0361536  26.3586775  35.7378114 104.1323866  26.5566985
  36.1527987 105.0378687  25.4166253  43.6728782  95.9085213  35.7411531
  44.1910726  96.6446240  35.4158019  43.3183915  96.2149206  36.5758290
  35.2527720 100.7689894  23.8572936  34.5596965 100.8434249  23.2012972
  35.0079472 100.0050237  24.3794453  43.9241376  92.3285495  31.2612427
  44.2043130  91.6608684  31.8872854  44.7091983  92.5214591  30.7487091
  41.7274845 111.5044489  22.8237454  41.1548812 112.1234676  22.3707925
  42.3007639 112.0543851  23.3577375  47.7950235 100.7503129  35.0084002
  48.7467658 100.8501227  35.0296226  47.6253685  99.9581398  35.5182087
  45.8164614  97.8358712  35.1943403  45.2214546  98.1163725  34.4989892
  45.5314311  98.3252613  35.9660144  44.9472105 111.7881639  23.9546036
  45.8802778 111.7227201  24.1578911  44.8595318 112.6237906  23.4960568
  47.5760121 111.1047510  20.9149983  47.4973753 110.7707373  21.8085741
  48.3969788 111.5969277  20.9141456  50.2738313 103.9709249  34.1226302
  50.2414633 103.0325250  34.3085986  50.8838936 104.0493286  33.3892127
  42.1121643 102.8405302  20.1653506  43.0580748 102.7111510  20.2341924
  41.7335888 102.1019964  20.6422934  50.4232801 100.7620292  34.1684585
  49.9071850  99.9778749  33.9814514  51.3072750 100.4339009  34.3331105
  48.0843528  94.5061308  30.1280398  47.8868349  94.1976396  31.0123730
  48.6943234  95.2322947  30.2578328  56.0914862 105.0325256  33.2632339
  56.8218251 104.7710544  33.8240042  55.4821808 104.2953978  33.3034407
  54.1730160 103.1733118  33.8606790  53.4463323 103.0389083  33.2523282
  53.7577446 103.4809947  34.6663508  41.9960336 106.8923048  41.6254163
  42.9163345 107.0701647  41.8194210  41.9609919 105.9479093  41.4733862
  40.2964561 100.7655278  20.1008391  39.3896016 100.4688391  20.1771105
  40.5740542 100.4685096  19.2342677  31.2142501 102.0861642  30.5507438
  30.8945285 101.2326950  30.2581812  30.6675929 102.3010220  31.3065405
  34.9922409 104.8024083  34.2676944  35.2108418 105.7341190  34.2864978
  35.4048182 104.4432057  35.0531748  41.9126626  95.3092168  26.2552633
  41.1027355  94.9639253  26.6307879  42.6011043  94.9999712  26.8440244
  43.8417175  94.3870215  27.8776929  44.3948213  94.8065668  28.5366952
  44.0787261  93.4605963  27.9199885  39.8650274 100.3757288  43.6579693
  39.7647001 101.3251645  43.5891784  39.6471816 100.0475527  42.7855763
  39.0663345  97.6242213  20.2420370  39.9282509  97.9497112  20.5016188
  39.2513689  96.8373709  19.7293436  31.0830761 105.7064553  32.5200559
  30.3894232 105.2918506  32.0070514  31.8303752 105.7485090  31.9233978
  47.2195982  96.4970740  27.3855593  46.6394651  97.1555544  27.0033646
  46.9531914  95.6748084  26.9743011  45.6699548  95.8975798  29.5876914
  46.1699326  96.0092332  28.7791233  46.3135156  95.5936850  30.2277722
  39.7281544 103.8054427  42.4744755  39.2448626 104.6054787  42.6808644
  39.8142483 103.8162372  41.5212199  32.9967503 105.6382807  30.3966574
  32.9738192 105.7370494  29.4448457  33.3068140 106.4847958  30.7183740
  35.6554881 107.6958962  34.5113189  36.6098135 107.6642904  34.4443120
  35.4567405 107.2349586  35.3263414  36.2454263 106.2660078  37.0783986
  37.0647152 106.7604157  37.1018823  36.5191071 105.3492046  37.0501554
  46.0020860  98.6570830  26.4411942  45.1146715  98.9420481  26.2232136
  46.4174849  98.4964594  25.5939219  49.3535396  98.6817351  30.1566281
  50.1295786  99.1713804  30.4290898  48.6283530  99.1075405  30.6138150
  51.7907954  99.3944970  31.2140222  52.3852445  99.1540706  30.5033530
  51.8634538  98.6752101  31.8413758  45.1464073 108.4215505  20.5359962
  45.8499923 108.6265507  21.1517617  44.4226722 108.9892267  20.8009045
  45.9761883 104.1725366  26.6562232  45.9197085 104.6293918  25.8169864
  46.5290226 103.4116051  26.4785075  49.7866689  99.9615098  27.4812351
  49.5303624  99.5611734  28.3120559  49.1619557 100.6758892  27.3562491
  54.0979027 102.7011171  29.9883643  53.5378585 102.7704361  30.7615205
  53.4922531 102.5252156  29.2683139  47.0550771 108.8598034  22.5858422
  47.8896374 108.4279233  22.4035897  46.8935113 108.6880048  23.5135316
  46.7096663 105.3630147  23.9514761  46.6545467 105.1974419  23.0103205
  46.0842718 106.0706180  24.1076951  31.4989178 100.5998212  37.7776183
  32.1448041 100.0897166  38.2663408  31.2906329 101.3366893  38.3519609
  44.0242570 107.6679059  43.2768324  44.8933730 107.8419712  42.9154959
  43.5449321 108.4873476  43.1544053  40.0192788  94.8638256  23.5300079
  40.0071458  95.8080096  23.6868350  40.9116210  94.6808402  23.2359541
  43.8344908  91.4581033  27.7846016  43.0677303  90.9039520  27.9302699
  44.2455613  91.5302902  28.6460168  35.8386669  97.7465829  41.8751197
  36.7018130  97.3902634  42.0854522  35.2652079  97.4079724  42.5626602
  55.2376314 117.1019139  29.7566807  56.0239403 116.6838562  29.4057224
  55.5015018 118.0065231  29.9248455  60.6384741 117.0394372  30.6599785
  61.3709913 116.4693589  30.8937615  59.8824097 116.6515973  31.1006291
  58.1610162 110.7515946  35.1194394  57.8293486 111.6211357  34.8955609
  57.5655775 110.4352230  35.7988424  51.8966348 114.4911513  22.8524476
  52.0640750 115.3591750  23.2194947  51.7063517 114.6538795  21.9285765
  58.0538825 115.4711033  32.1987744  57.1455702 115.4026441  31.9046505
  58.0026421 115.9482978  33.0269569  59.9200471 113.6727471  33.9765618
  59.2774852 113.9660004  33.3305412  59.4155400 113.5580391  34.7818814
  57.5740635 117.4190644  24.6651477  58.4858491 117.6518031  24.4899174
  57.0650282 118.0027688  24.1026555  52.2112473 116.7787879  35.6746326
  53.0573668 117.2027292  35.8180975  52.1511110 116.1221503  36.3684890
  55.3611918 114.4392247  37.3327500  55.1172850 115.1934308  36.7961776
  55.6371849 114.8177595  38.1674747  54.9176610 113.5948680  32.9141338
  54.0561089 113.8929934  33.2058075  54.9439044 113.8119079  31.9822370
  66.5202202 120.2041563  30.5312094  65.7665910 119.6348961  30.3756099
  66.6549743 120.1704228  31.4782729  48.3968170 111.1546546  42.8681169
  48.0035115 110.6012744  43.5428813  49.2134310 111.4657124  43.2587687
  51.3136130 112.5704425  40.4601426  52.0545844 113.1711578  40.3805888
  51.5454053 111.8282062  39.9019468  55.2593293 108.5985528  34.7365707
  54.9157563 109.4887169  34.6604818  55.6272256 108.4087185  33.8735292
  52.8090687 113.4343839  28.3023381  51.9532284 113.0450690  28.1229019
  53.2217639 113.5135800  27.4423166  54.3389834 110.9690183  32.7014941
  53.8354629 110.9320318  31.8882746  54.6320441 111.8782925  32.7611597
  50.5832720 111.0528912  31.7081122  51.4485716 110.8571721  31.3487012
  50.6510229 110.8239264  32.6350479  55.0129879 116.4621231  25.0697924
  54.7080015 116.7767380  25.9208067  55.9660321 116.5402651  25.1125257
  48.1895039 113.2831120  29.0797489  48.7638791 113.0606302  28.3470682
  48.7766021 113.3519815  29.8326090  48.5164626 115.3135581  23.0993374
  47.6801938 115.6510268  23.4202649  48.3769396 115.1784561  22.1620511
  50.4917706 110.1572369  27.8072558  49.8382119 109.8421386  27.1829173
  50.4498181 109.5348110  28.5332381  53.7255447 116.6454303  32.1320206
  52.8078008 116.8669250  31.9741894  54.1415590 116.7200613  31.2731913
  56.9569332 115.0802835  29.2441676  56.2192089 114.5680221  29.5751918
  57.2096105 114.6403216  28.4324953  57.0580959 107.8579087  29.8383445
  57.3639836 106.9976450  29.5509360  57.7833564 108.4496707  29.6382439
  54.8668610 117.2351764  36.9364909  55.2217998 117.4623237  37.7959375
  55.5140742 117.5670141  36.3142164  48.7608474 114.3428295  33.7211250
  49.4007853 114.2017054  33.0234213  47.9286004 114.0562809  33.3449852
  53.1387587 112.3528318  37.6848722  52.4915502 113.0518268  37.5913198
  53.9088603 112.7864462  38.0524970  48.9800747 115.6994157  37.7364817
  48.4438104 115.2484896  38.3886414  48.3917456 115.8340066  36.9935282
  48.3903006 115.1582809  20.2991281  47.5132472 115.0371610  19.9353528
  48.8660759 114.3668887  20.0470170  54.8863582 113.3203729  30.1888007
  55.3832282 112.5673691  29.8689077  54.1150564 113.3568045  29.6231216
  62.7393340 119.0244094  31.8306299  62.7283216 119.9068810  31.4600232
  61.8710719 118.6715645  31.6360836  51.4698551 115.4621112  29.9159692
  51.0996339 114.9092152  30.6040597  51.9657643 114.8579245  29.3634692
  59.3565914 117.9192735  28.2976465  59.8226367 118.7520727  28.2236767
  59.8073415 117.4537717  29.0021723  57.3282577 110.2873322  32.3367366
  56.4145657 110.5177549  32.5049573  57.7575679 110.3711766  33.1881398
  57.0989036 118.4763214  34.8367260  56.4460486 118.7239122  34.1819713
  57.4769415 117.6627352  34.5029737  46.8663885 112.8725102  36.1612798
  46.9305211 113.7339933  35.7490195  46.8031005 112.2599104  35.4285156
  46.3416157 114.9448235  39.8085832  46.9688196 114.5625312  40.4223356
  45.4844076 114.7262437  40.1741524  49.4502260 112.1635087  37.9972387
  49.9736662 112.4097384  38.7598696  49.2314594 112.9955122  37.5775524
  44.8469542 114.4338762  25.8643512  44.5182248 113.5536141  25.6818618
  45.2008912 114.3786430  26.7519901  47.9611365 114.7211732  26.2318990
  48.3007437 115.2497653  25.5097598  48.4083485 115.0592138  27.0077556
  50.6554806 113.1048782  35.6822058  50.3151626 112.3056595  36.0842738
  49.9493812 113.4050493  35.1098891  51.3071277 110.1898095  34.1349381
  52.1297347 109.7158573  34.0128271  51.5509341 110.9688578  34.6348067
  49.9479512 113.2186353  24.4312282  50.6687874 113.5967606  23.9275999
  49.3244816 113.9375230  24.5347260  54.0910635 113.9231502  25.3670615
  54.3074249 114.8056140  25.0659443  53.6104702 113.5317716  24.6376257
  50.6906239 113.8719763  31.9922249  50.6767808 112.9760857  31.6554547
  51.4078667 113.8790427  32.6260535  52.5432370 114.3057104  34.0375376
  52.2850148 115.2274174  34.0359707  52.0117410 113.9087538  34.7275840
  50.0943135 112.7534144  27.2609819  50.2159046 111.8250790  27.4600706
  49.8045177 112.7672830  26.3488134  52.9634325 110.4389054  30.3976539
  52.9856022 110.5028387  29.4428518  53.3802384 109.5993563  30.5917045
  63.3417950 120.1744314  28.4355761  63.7849096 119.4251639  28.0374885
  62.4644460 120.1654450  28.0529493  49.5784214 114.2666141  41.4699752
  49.6272370 115.1428264  41.0877521  50.1206729 113.7243534  40.8971395
  57.4740698 117.6430659  39.3792924  58.3750560 117.5037123  39.0876922
  57.5488672 117.8085113  40.3191101  51.8083503 115.0197513  38.2246110
  50.9386812 115.3131079  37.9528699  52.0442983 115.6037958  38.9453374
  59.9342320 119.2029287  36.7755697  60.4096442 119.3956933  35.9674548
  59.0107886 119.2588473  36.5299080  54.5122537 111.2377130  35.7411531
  55.0304481 111.9738157  35.4158019  54.1577670 111.5441124  36.5758290
  54.7635131 107.6577413  31.2612427  55.0436885 106.9900602  31.8872854
  55.5485738 107.8506508  30.7487091  58.6343989 116.0795047  35.0084002
  59.5861412 116.1793145  35.0296226  58.4647440 115.2873315  35.5182087
  56.6558369 113.1650630  35.1943403  56.0608301 113.4455643  34.4989892
  56.3708065 113.6544531  35.9660144  61.1132067 119.3001167  34.1226302
  61.0808387 118.3617167  34.3085986  61.7232691 119.3785203  33.3892127
  61.2626556 116.0912210  34.1684585  60.7465604 115.3070667  33.9814514
  62.1466504 115.7630927  34.3331105  58.9237282 109.8353226  30.1280398
  58.7262104 109.5268314  31.0123730  59.5336988 110.5614864  30.2578328
  66.9308617 120.3617173  33.2632339  67.6612005 120.1002461  33.8240042
  66.3215562 119.6245895  33.3034407  65.0123914 118.5025036  33.8606790
  64.2857078 118.3681001  33.2523282  64.5971201 118.8101865  34.6663508
  51.1358315 116.0947196  20.1008391  50.2289770 115.7980309  20.1771105
  51.4134296 115.7977014  19.2342677  52.7520381 110.6384086  26.2552633
  51.9421109 110.2931171  26.6307879  53.4404798 110.3291629  26.8440244
  54.6810929 109.7162132  27.8776929  55.2341968 110.1357586  28.5366952
  54.9181015 108.7897881  27.9199885  50.7044028 115.7049206  43.6579693
  50.6040755 116.6543563  43.5891784  50.4865570 115.3767445  42.7855763
  49.9057100 112.9534131  20.2420370  50.7676264 113.2789029  20.5016188
  50.0907444 112.1665627  19.7293436  58.0589736 111.8262658  27.3855593
  57.4788405 112.4847462  27.0033646  57.7925669 111.0040002  26.9743011
  56.5093303 111.2267715  29.5876914  57.0093081 111.3384250  28.7791233
  57.1528910 110.9228768  30.2277722  56.8414614 113.9862748  26.4411942
  55.9540469 114.2712399  26.2232136  57.2568603 113.8256511  25.5939219
  60.1929150 114.0109269  30.1566281  60.9689540 114.5005721  30.4290898
  59.4677284 114.4367323  30.6138150  62.6301709 114.7236888  31.2140222
  63.2246200 114.4832624  30.5033530  62.7028293 114.0044019  31.8413758
  60.6260444 115.2907016  27.4812351  60.3697378 114.8903651  28.3120559
  60.0013312 116.0050810  27.3562491  64.9372782 118.0303089  29.9883643
  64.3772340 118.0996278  30.7615205  64.3316285 117.8544074  29.2683139
  50.8586543 110.1930174  23.5300079  50.8465213 111.1372014  23.6868350
  51.7509965 110.0100320  23.2359541  54.6738662 106.7872951  27.7846016
  53.9071058 106.2331437  27.9302699  55.0849367 106.8594820  28.6460168
  46.6780423 113.0757747  41.8751197  47.5411885 112.7194551  42.0854522
  46.1045834 112.7371641  42.5626602   9.6169518  36.1724417  25.3006635
   9.6058159  35.7777215  24.4287139   9.7790158  35.4390490  25.8940407
   6.3376779  38.9561529  24.2485819   6.0466645  39.8607160  24.1332486
   6.9733764  38.9978056  24.9629889  11.2966664  38.6422944  21.2435613
  10.9967388  39.5447983  21.1351420  10.9517724  38.3755128  22.0956766
   8.7704674  32.5795130  26.8667948   7.9938008  33.1389050  26.8570812
   9.4095237  33.0651913  27.3882818   7.0251046  35.3880583  26.4285915
   7.7665731  35.9265627  26.1520738   6.3188032  36.0146872  26.5857466
  12.5006386  37.5309724  25.0258076  12.9089742  37.0892134  24.2812708
  11.7783647  36.9562351  25.2792269   8.8537456  32.4682331  22.3991633
   9.6998651  32.8921744  22.5426282   8.7936094  31.8115955  23.0930196
  12.8235201  38.0910915  18.7810365  12.1944063  38.2556629  18.0786433
  12.4360863  38.5052524  19.5521329  16.7024433  39.0265352  16.1354729
  16.0175471  39.4064254  15.5851762  16.7868282  39.6360679  16.8686677
  12.0036901  30.1286699  24.0572807  11.7597833  30.8828760  23.5207082
  12.2796832  30.5072047  24.8920054  13.9575364  36.6725311  22.7350072
  14.1692259  37.3157071  22.0584453  13.9105112  35.8387628  22.2672002
   5.7612410  32.5420232  27.2301225   5.1311071  33.2236512  27.4636621
   5.6548498  32.4303313  26.2854363  15.0721192  39.5497267  20.9072430
  15.8938636  39.1477454  20.6255111  15.0683595  39.4465501  21.8588545
   8.8377796  39.0981310  23.0633140   8.9022228  39.5601717  23.8991312
   8.1288719  38.4678675  23.1915450  23.1627185  35.8936015  17.2557401
  22.4090893  35.3243413  17.1001406  23.2974726  35.8598680  18.2028036
   5.0393153  26.8440997  29.5926476   4.6460098  26.2907196  30.2674120
   5.8559293  27.1551576  29.9832993   7.9561114  28.2598877  27.1846732
   8.6970827  28.8606030  27.1051195   8.1879037  27.5176514  26.6264775
   3.1002452  33.4455244  25.4624962   2.9855967  32.5440501  25.7632061
   2.2446970  33.6918941  25.1109778  10.1794290  41.3872984  27.0612463
   9.7358144  40.6009363  26.7433367  10.8411503  41.5752135  26.3956353
   4.9381411  42.9168786  21.5873141   5.4888836  42.7885849  20.8150135
   4.0992887  43.2163675  21.2368034  12.2775528  41.6675784  25.0893864
  12.2594003  42.4884665  24.5974133  13.1995448  41.5429859  25.3144005
   8.7348582  39.1819914  25.9317372   9.2676919  38.4208202  25.7016680
   8.2062663  38.8893565  26.6741527  15.0794140  36.5054926  18.5603230
  14.4217815  37.1954188  18.6483359  15.8834540  36.8951358  18.9037217
  13.0994335  41.6781797  15.6736133  13.3917309  42.2386854  14.9548499
  13.6092955  41.9710358  16.4289292  11.5093594  32.9246216  23.6610215
  11.8642981  33.1517689  24.5204681  12.1565725  33.2564593  23.0387471
  17.2660710  38.1141179  19.3770816  17.6997217  38.0216468  20.2253870
  17.9792291  38.0898679  18.7390832  10.9988605  41.7143273  20.9103917
  11.0525627  42.2834209  21.6781632  10.1303387  41.8845158  20.5457954
  18.1276260  38.1564880  21.9103701  18.3212150  39.0610690  22.1562976
  18.0276878  37.6972299  22.7442286   9.7812571  28.0422770  24.4094029
   9.1340486  28.7412720  24.3158505  10.5513586  28.4758914  24.7770277
  13.1891369  38.3071622  27.4844582  13.0376875  38.0782174  26.5674666
  13.1796048  39.2642224  27.4975927   9.9576705  35.8803535  22.4690848
  10.8868765  36.0314695  22.2959816   9.5367735  35.9687556  21.6139495
   8.7565037  39.9054199  20.2389386   8.6176122  39.5372984  21.1115324
   7.9679633  40.4201839  20.0673344   4.2814496  34.6903432  23.1530805
   4.1434294  33.9583671  23.7542344   5.1919419  34.6012332  22.8714993
   6.9096796  34.4023391  22.6414485   7.6196415  33.7616584  22.6001103
   6.8666105  34.6536286  23.5640665  14.8983575  41.3390745  25.5621064
  14.8396121  40.6549965  24.8951647  15.3003094  42.0809735  25.1101690
   3.9174274  48.1552659  18.3554783   4.1570872  48.7871183  19.0333801
   3.0743470  47.8040699  18.6420142  14.9000982  39.3030329  23.7935044
  14.0127761  38.9656251  23.9161442  15.4699533  38.5713360  24.0303809
   8.4302136  43.9631781  20.7596287   8.3572307  44.7686753  21.2715591
   7.9879529  44.1623747  19.9344308  19.3818323  34.7138546  18.5551605
  19.3708199  35.5963262  18.1845538  18.5135702  34.3610097  18.3606142
  10.8900819  43.8618615  22.9154445  11.6028792  44.4966080  22.8430347
  10.3990848  43.9582481  22.0994447   5.9412733  41.6113059  23.7360016
   6.6422192  42.2449542  23.8889410   5.4707848  41.9527790  22.9755655
  13.7414019  34.1657666  21.5612567  13.0885469  34.4133573  20.9065019
  14.1194399  33.3521804  21.2275044  10.7021193  44.2017359  15.6640737
  10.8843587  43.3839015  16.1268489  11.5254179  44.4185051  15.2265627
   9.7901592  34.9077477  28.0478604   9.1142229  34.8071606  28.7180979
  10.6129226  34.7516691  28.5114601   1.5380451  41.1449414  20.6691119
   2.1233888  40.3993102  20.8019023   1.3405289  41.4553370  21.5527783
   8.5324375  46.2144405  22.2836220   9.0842683  46.3776026  23.0485305
   8.8730568  46.8048842  21.6116244   2.9841141  30.6342687  26.5331139
   3.6113179  30.2519764  27.1468663   2.1269059  30.4156889  26.8986831
  13.3835249  41.0405662  28.1384874  13.9275153  41.6535620  27.6439829
  12.8022094  41.5985240  28.6551887  11.6692762  44.1626380  19.2699902
  11.5443901  43.3616120  18.7610847  12.3271853  44.6572573  18.7813872
  13.7327670  41.9635400  20.8979452  12.7858006  41.8440751  20.8257779
  14.0810444  41.0757898  20.9805713  10.7374104  41.7588116  17.0983804
  10.5899066  40.8304824  17.2791374  11.5627597  41.7808207  16.6140879
  14.3408226  42.5816675  18.1848677  15.2654773  42.3759536  18.0473128
  14.1723529  42.3333076  19.0938018   8.6790186  43.7802886  24.2984874
   8.9877313  43.5352033  25.1707574   9.4765668  43.9849525  23.8103744
   8.7010798  45.9340796  16.5290251   8.2615788  45.4417174  17.2223107
   9.4518915  45.3913763  16.2882326   6.2209198  29.9560593  28.1945058
   6.2697353  30.8322716  27.8122828   6.7631712  29.4137986  27.6216701
  16.7064043  40.5001716  27.4746195  15.9159587  40.4825855  26.9350695
  16.4697398  41.0390010  28.2295232  16.8261918  37.3494182  24.7878924
  16.8759923  37.1844190  25.7294447  16.7175842  36.4821442  24.3976805
  14.1165681  33.3325111  26.1038231  15.0175544  33.1931575  25.8122228
  14.1913655  33.4979565  27.0436408   8.4508486  30.7091965  24.9491417
   7.5811796  31.0025531  24.6774005   8.6867967  31.2932410  25.6698681
  18.3280115  39.7691124  25.0320945  18.0364924  40.1321105  25.8684406
  17.7152247  39.0558132  24.8534277  19.5275798  37.3344004  17.5523516
  20.3622689  37.7733808  17.7161076  19.6634926  36.8582657  16.7331761
  16.5767304  34.8923739  23.5001003  17.0521425  35.0851385  22.6919855
  15.6532869  34.9482924  23.2544387  15.2768973  31.7689499  21.7329309
  16.2286395  31.8687596  21.7541533  15.1072423  30.9767767  22.2427393
  17.7557050  34.9895618  20.8471609  17.7233370  34.0511619  21.0331292
  18.3657674  35.0679655  20.1137433  17.9051539  31.7806662  20.8929892
  17.3890587  30.9965118  20.7059821  18.7891487  31.4525378  21.0576411
  23.5733600  36.0511625  19.9877645  24.3036989  35.7896913  20.5485349
  22.9640546  35.3140347  20.0279713  21.6548897  34.1919488  20.5852097
  20.9282061  34.0575453  19.9768588  21.2396184  34.4996316  21.3908815
   9.4779074  37.9109418  28.3499470  10.3982083  38.0888017  28.5439516
   9.4428657  36.9665463  28.1979169   7.3469012  31.3943658  30.3825000
   7.2465738  32.3438015  30.3137091   7.1290554  31.0661897  29.5101070
   7.2100282  34.8240797  29.1990061   6.7267363  35.6241157  29.4053950
   7.2961221  34.8348742  28.2457505   3.1373619  38.7145331  21.2358495
   4.0916873  38.6829274  21.1688427   2.9386143  38.2535955  22.0508721
   3.7273001  37.2846448  23.8029293   4.5465890  37.7790526  23.8264130
   4.0009809  36.3678416  23.7746860   4.6492974  45.1534268  18.4647136
   4.5325358  46.0979700  18.3625826   3.8285420  44.8507830  18.8532935
  11.5061308  38.6865429  30.0013630  12.3752467  38.8606081  29.6400265
  11.0268059  39.5059846  29.8789360   5.6747488  45.8062530  21.6803064
   6.5774735  45.8386140  21.9969559   5.4484858  44.8762981  21.6949400
   7.4301090  44.5593516  18.3413143   6.4796721  44.5595378  18.2277515
   7.7333576  43.8126251  17.8249177   3.3205407  28.7652198  28.5996504
   4.1836868  28.4089003  28.8099829   2.7470817  28.4266093  29.2871908
  23.1653783  50.3954055  19.4058905  23.8032193  50.2760802  18.7022245
  23.0474626  51.3434899  19.4646857  19.9743490  50.3481483  19.3420430
  19.6362001  50.2322548  18.4540965  20.8433258  49.9472648  19.3221436
  15.8330305  52.2016959  15.3317321  15.2695171  52.1106896  14.5633609
  15.7182700  51.3816864  15.8119813  20.4563273  51.5016335  25.3006635
  20.4451913  51.1069133  24.4287139  20.6183912  50.7682407  25.8940407
  13.3794737  53.6968151  18.1701541  14.1716029  53.3558976  17.7547841
  13.6191388  53.8063126  19.0903695  21.4129864  55.8687927  10.6431786
  20.7617844  56.4542007  10.2565799  22.2074227  56.3994122  10.7026823
  15.3385491  52.9577064  11.0418920  16.1116367  52.4106051  10.9031796
  15.6910890  53.8221314  11.2533381  17.1770534  54.2853446  24.2485819
  16.8860400  55.1899077  24.1332486  17.8127518  54.3269974  24.9629889
  18.1026741  51.6630295  20.8387179  18.6990313  51.4386317  20.1244142
  18.1601712  50.9215040  21.4412627  22.7195052  48.1205509  16.4812113
  23.5058141  47.7024932  16.1302530  22.9833756  49.0251601  16.6493762
  22.8905129  53.5578359  11.1800770  22.2550962  53.6312985  11.8921675
  22.5602536  54.1471958  10.5019849  28.1203479  48.0580742  17.3845092
  28.8528651  47.4879959  17.6182921  27.3642835  47.6702342  17.8251597
  17.3948058  51.0197836  10.8761745  17.2784316  50.3442740  11.5442829
  17.5050318  50.5330210  10.0593898  19.7379599  50.4807983  14.5808434
  19.3737806  49.9538604  15.2921356  20.5946715  50.0906452  14.4074920
  25.6428899  41.7702316  21.8439700  25.3112224  42.6397727  21.6200915
  25.0474513  41.4538600  22.5233731  22.1360419  53.9714862  21.2435613
  21.8361142  54.8739901  21.1351420  21.7911478  53.7047045  22.0956766
  15.5872900  50.4228659  17.2772317  14.6623397  50.2904873  17.4850009
  15.8357314  51.2022878  17.7742260  25.5357563  46.4897402  18.9233050
  24.6274440  46.4212811  18.6291811  25.4845159  46.9669347  19.7514876
  19.3574307  47.9655541  10.5616449  19.2373932  48.4112591  11.4001930
  18.6626895  48.3140858  10.0029988  12.9481711  50.0661932  18.1116107
  13.0774093  50.3196411  19.0255518  12.2679163  50.6589640  17.7920762
  17.1181199  60.7359182  14.2106581  17.0405228  61.6867007  14.2895061
  16.5142842  60.3905055  14.8681507  19.6098429  47.9087048  26.8667948
  18.8331763  48.4680968  26.8570812  20.2488992  48.3943831  27.3882818
  27.4019209  44.6913841  20.7010924  26.7593589  44.9846374  20.0550719
  26.8974138  44.5766761  21.5064121  25.0559373  48.4377014  11.3896784
  25.9677229  48.6704400  11.2144481  24.5469020  49.0214058  10.8271862
  17.8644801  50.7172501  26.4285915  18.6059485  51.2557545  26.1520738
  17.1581786  51.3438790  26.5857466  23.3400140  52.8601642  25.0258076
  23.7483496  52.4184052  24.2812708  22.6177402  52.2854269  25.2792269
  19.6931210  47.7974248  22.3991633  20.5392406  48.2213662  22.5426282
  19.6329848  47.1407873  23.0930196  23.6628955  53.4202832  18.7810365
  23.0337818  53.5848546  18.0786433  23.2754617  53.8344442  19.5521329
  27.5418187  54.3557270  16.1354729  26.8569225  54.7356171  15.5851762
  27.6262036  54.9652597  16.8686677  22.8430656  45.4578617  24.0572807
  22.5991588  46.2120677  23.5207082  23.1190586  45.8363964  24.8920054
  24.7969119  52.0017229  22.7350072  25.0086014  52.6448989  22.0584453
  24.7498867  51.1679546  22.2672002  22.3995348  44.6135050  19.6386644
  21.5379827  44.9116303  19.9303382  22.4257782  44.8305449  18.7067677
  19.2156917  53.1577240  16.0460450  19.6795263  53.4364943  15.2565073
  18.9513715  52.2560685  15.8633541  16.1080998  52.7048722  18.9840213
  16.6782355  53.1335990  18.3457698  16.6989110  52.4231307  19.6824399
  18.1525803  49.2800393  12.8550015  18.8549846  49.7321436  13.3223942
  17.8206432  48.6384212  13.4829908  16.6006165  47.8712149  27.2301225
  15.9704825  48.5528430  27.4636621  16.4942252  47.7595231  26.2854363
  11.8951137  47.5383945  18.1567149  11.1050191  47.7941474  17.6807259
  12.3862384  48.3532283  18.2619189  25.9114947  54.8789184  20.9072430
  26.7332390  54.4769372  20.6255111  25.9077349  54.7757419  21.8588545
  13.8465882  47.9028525  15.1150625  13.0497046  48.0147219  15.6334121
  13.6191475  48.2415177  14.2491516  19.6771550  54.4273228  23.0633140
  19.7415983  54.8893635  23.8991312  18.9682474  53.7970593  23.1915450
  10.1788840  47.7914436  20.5882140  10.4296878  48.6761446  20.8539716
  10.7148388  47.6119037  19.8157231  34.0020940  51.2227933  17.2557401
  33.2484648  50.6535331  17.1001406  34.1368481  51.1890597  18.2028036
  19.3919568  56.0941335  12.9312120  19.2565242  56.9392871  13.3596968
  19.9329380  56.2960613  12.1678054  15.8786907  42.1732915  29.5926476
  15.4853853  41.6199114  30.2674120  16.6953048  42.4843494  29.9832993
  12.8448965  53.6116773  13.5040046  13.3573486  54.4060024  13.6545610
  13.4971678  52.9143064  13.4373647  14.6543850  56.7282530  15.5862799
  14.8310478  57.6500494  15.3983783  15.4500683  56.4140949  16.0157178
  18.7954868  43.5890794  27.1846732  19.5364582  44.1897947  27.1051195
  19.0272791  42.8468432  26.6264775  13.9396206  48.7747161  25.4624962
  13.8249721  47.8732419  25.7632061  13.0840724  49.0210858  25.1109778
  21.0188044  56.7164902  27.0612463  20.5751898  55.9301280  26.7433367
  21.6805258  56.9044052  26.3956353  15.7775165  58.2460703  21.5873141
  16.3282590  58.1177767  20.8150135  14.9386641  58.5455592  21.2368034
  23.1169282  56.9967702  25.0893864  23.0987757  57.8176583  24.5974133
  24.0389202  56.8721777  25.3144005  19.5742336  54.5111831  25.9317372
  20.1070673  53.7500119  25.7016680  19.0456417  54.2185483  26.6741527
  22.7412031  39.6171897  21.4611014  22.3976301  40.5073539  21.3850124
  23.1090994  39.4273555  20.5980599  10.8097882  51.9405428  14.2799616
  11.6473104  52.3502436  14.0633324  10.9876150  51.0004870  14.2499810
  22.7062314  49.6080508   9.9683449  22.1908937  50.3785113  10.2071836
  22.4339622  48.9345644  10.5916510  20.2909425  44.4530209  15.0268687
  19.4351021  44.0637059  14.8474326  20.7036377  44.5322170  14.1668473
  21.8208572  41.9876552  19.4260247  21.3173367  41.9506687  18.6128052
  22.1139178  42.8969295  19.4856904  18.0651457  42.0715282  18.4326429
  18.9304454  41.8758091  18.0732318  18.1328966  41.8425634  19.3595786
  27.6796588  52.3612863  11.9036622  26.9026031  52.0224022  11.4591785
  28.3588069  52.3665486  11.2291588  22.4948617  47.4807600  11.7943230
  22.1898753  47.7953750  12.6453373  23.4479059  47.5589020  11.8370563
  20.9395049  53.6397824  13.4436184  20.4116411  52.9050583  13.1309422
  20.4382552  54.4172500  13.1976153  25.9187895  51.8346844  18.5603230
  25.2611569  52.5246106  18.6483359  26.7228294  52.2243276  18.9037217
  15.6713777  44.3017490  15.8042796  16.2457528  44.0792671  15.0715989
  16.2584759  44.3706184  16.5571397  24.7293354  50.1891217  16.6107172
  25.2425236  50.8221209  17.1128882  25.3794578  49.5892412  16.2450532
  17.9736444  41.1758739  14.5317865  17.3200857  40.8607756  13.9074480
  17.9316918  40.5534479  15.2577688  21.9915728  60.1675541   9.3667843
  21.3177427  60.4707238   9.9752801  22.3781550  60.9704621   9.0173300
  21.2074185  47.6640672  18.8565513  20.2896746  47.8855619  18.6987201
  21.6234328  47.7386983  17.9977220  21.9909232  49.0632088  13.9868193
  22.7381051  49.5753485  13.6775315  22.2600822  48.7416141  14.8472587
  20.2635883  51.5590629  10.9695147  19.3547102  51.2749662  11.0667617
  20.2930966  51.9789707  10.1098454  25.4955150  55.1697218  14.7386315
  25.0417477  54.3288128  14.7951505  24.8649117  55.8058617  15.0761095
  24.4388070  46.0989204  15.9686982  23.7010826  45.5866591  16.2997225
  24.6914843  45.6589586  15.1570259  23.9388089  57.0073715  15.6736133
  24.2311064  57.5678772  14.9548499  24.4486710  57.3002276  16.4289292
  24.5399697  38.8765456  16.5628752  24.8458574  38.0162820  16.2754667
  25.2652302  39.4683077  16.3627745  10.8324053  49.2796143  14.9510350
  10.6348453  48.6865504  14.2261416  10.2770717  48.9748353  15.6686288
  18.8120777  49.1719249  17.0704943  18.8669386  48.2193086  16.9947419
  18.0011979  49.3278689  17.5546241  19.9611970  53.0999372   8.3083226
  19.5231400  52.3835231   7.8488863  20.7022411  53.3275487   7.7468317
  16.7513137  47.7896309  14.8295322  15.9381002  48.0890480  15.2360514
  17.2472131  47.3951998  15.5469804  18.9021714  57.7854066  16.7629586
  18.8597893  58.0114912  15.8338118  19.8184413  57.5517441  16.9115387
  22.3487348  48.2538134  23.6610215  22.7036736  48.4809607  24.5204681
  22.9959479  48.5856510  23.0387471  28.0785085  51.3756570  14.3659544
  27.9402984  51.5658165  13.4380734  27.7221304  52.1375952  14.8227596
  16.2427211  45.3614665  20.4456556  16.8826591  45.2203424  19.7479520
  15.4104742  45.0749178  20.0695158  28.1054465  53.4433097  19.3770816
  28.5390971  53.3508386  20.2253870  28.8186045  53.4190597  18.7390832
  17.0187515  54.6617095  16.5591549  17.8128114  54.1667415  16.3574124
  16.3079208  54.1334958  16.1959255  21.8382360  57.0435191  20.9103917
  21.8919382  57.6126127  21.6781632  20.9697141  57.2137076  20.5457954
  13.3270279  48.8060177  12.6351302  12.3967867  48.7444632  12.8521264
  13.4227751  48.2836130  11.8387943  13.2455828  45.3314990  15.2229543
  13.5062645  46.2460323  15.1138704  14.0673000  44.8639432  15.3726156
  14.7180753  46.7452747  22.3928368  15.3903806  46.5370109  21.7441017
  13.8910540  46.5474833  21.9533600  28.9670014  53.4856797  21.9103701
  29.1605904  54.3902608  22.1562976  28.8670632  53.0264216  22.7442286
  20.6206325  43.3714688  24.4094029  19.9734240  44.0704637  24.3158505
  21.3907340  43.8050832  24.7770277  24.0285123  53.6363540  27.4844582
  23.8770629  53.4074092  26.5674666  24.0189802  54.5934141  27.4975927
  20.7970459  51.2095453  22.4690848  21.7262519  51.3606612  22.2959816
  20.3761489  51.2979473  21.6139495  19.5958791  55.2346117  20.2389386
  19.4569877  54.8664901  21.1115324  18.8073387  55.7493757  20.0673344
  20.1906943  60.3355214  11.5814923  20.3658699  59.8643257  12.3960545
  19.5039731  60.9620980  11.8096183  21.1464006  54.6127720  17.6278224
  20.8113839  54.5728490  18.5235874  20.6467952  53.9472436  17.1548634
  15.1208250  50.0195350  23.1530805  14.9828048  49.2875589  23.7542344
  16.0313174  49.9304250  22.8714993  24.0823198  51.9583754   7.9015283
  23.4652369  51.2330582   7.8048336  23.6139686  52.7193114   7.5582358
  17.7490551  49.7315309  22.6414485  18.4590169  49.0908501  22.6001103
  17.7059859  49.9828204  23.5640665  25.7377330  56.6682662  25.5621064
  25.6789876  55.9841883  24.8951647  26.1396848  57.4101652  25.1101690
  16.4619485  46.7180527  24.4610124  15.9256842  46.2671265  25.1131720
  15.8736193  46.8526436  23.7180588  14.7568028  63.4844576  18.3554783
  14.9964627  64.1163100  19.0333801  13.9137225  63.1332616  18.6420142
  25.7394737  54.6322246  23.7935044  24.8521516  54.2948168  23.9161442
  26.3093288  53.9005278  24.0303809   7.3923884  50.9646338  17.1178095
   8.0794924  50.6508068  16.5299110   7.2372013  51.8687703  16.8445346
  12.1958606  45.8536535  21.5463119  12.1116795  45.2462204  20.8113529
  11.3741313  46.3445553  21.5472615  19.2695890  59.2923699  20.7596287
  19.1966062  60.0978670  21.2715591  18.8273283  59.4915665  19.9344308
  19.0585670  58.5295469  14.2699108  18.2753192  59.0717149  14.3637333
  19.7578415  59.0469448  14.6693349  22.3682320  44.3390098  16.9133314
  22.8651020  43.5860061  16.5934384  21.5969302  44.3754415  16.3476523
  30.2212077  50.0430464  18.5551605  30.2101954  50.9255179  18.1845538
  29.3529457  49.6902015  18.3606142  21.7294574  59.1910533  22.9154445
  22.4422546  59.8257998  22.8430347  21.2384602  59.2874399  22.0994447
  23.4512101  53.0961785  14.4871737  22.5168379  53.2163248  14.3176441
  23.6288769  52.1934252  14.2231747  18.9517289  46.4807481  16.6404998
  18.5815076  45.9278522  17.3285904  19.4476381  45.8765615  16.0879998
  26.8384652  48.9379105  15.0221771  27.3045104  49.7707096  14.9482074
  27.2892153  48.4724086  15.7267030  16.7806487  56.9404976  23.7360016
  17.4815947  57.5741459  23.8889410  16.3101602  57.2819708  22.9755655
  24.9060883  55.2822926  12.0207923  25.1820727  55.1679521  12.9301797
  24.0365382  54.8840411  11.9820096  24.8101315  41.3059692  19.0612673
  23.8964395  41.5363919  19.2294879  25.2394416  41.3898136  19.9126705
  24.5807773  49.4949584  21.5612567  23.9279224  49.7425491  20.9065019
  24.9588153  48.6813722  21.2275044  21.5414947  59.5309277  15.6640737
  21.7237342  58.7130933  16.1268489  22.3647933  59.7476969  15.2265627
  21.8757113  58.4577462  12.9255785  22.4044879  57.9469917  12.3125947
  22.1385332  58.1419992  13.7901318  20.6295346  50.2369395  28.0478604
  19.9535983  50.1363524  28.7180979  21.4522980  50.0808609  28.5114601
  12.3774205  56.4741331  20.6691119  12.9627642  55.7285019  20.8019023
  12.1799044  56.7845288  21.5527783  15.2312861  59.5092579  15.6853561
  14.5623236  59.9938706  15.2017601  15.0925730  59.7561799  16.5996940
   6.9691860  49.0446932  19.3895562   7.0075960  48.5110522  20.1832680
   6.4632153  48.5182137  18.7706539  19.3718129  61.5436322  22.2836220
  19.9236437  61.7067944  23.0485305  19.7124323  62.1340760  21.6116244
  14.3482622  43.8911472  22.8858104  14.4123949  44.7526303  22.4735502
  14.2849743  43.2785474  22.1530463  13.8234895  45.9634605  26.5331139
  14.4506934  45.5811682  27.1468663  12.9662814  45.7448806  26.8986831
  24.2229004  56.3697580  28.1384874  24.7668908  56.9827538  27.6439829
  23.6415848  56.9277158  28.6551887  22.5086517  59.4918298  19.2699902
  22.3837656  58.6908038  18.7610847  23.1665608  59.9864491  18.7813872
  14.1294685  45.8467030  18.4477042  13.4081271  46.4602998  18.3084515
  14.9187941  46.3824795  18.3693688  24.5721425  57.2927318  20.8979452
  23.6251760  57.1732669  20.8257779  24.9204198  56.4049816  20.9805713
  16.9320998  43.1821457  24.7217694  17.4555400  43.4283753  25.4844003
  16.7133332  44.0141492  24.3020831  21.5767858  57.0880034  17.0983804
  21.4292821  56.1596741  17.2791374  22.4021352  57.1100125  16.6140879
  15.4430102  45.7398101  12.9564296  15.7826175  46.2684022  12.2342905
  15.8902223  46.0778507  13.7322863  25.1801980  57.9108593  18.1848677
  26.1048528  57.7051454  18.0473128  25.0117283  57.6624994  19.0938018
  18.1373543  44.1235152  22.4067364  17.7970364  43.3242965  22.8088044
  17.4312550  44.4236863  21.8344197  18.7890015  41.2084464  20.8594687
  19.6116084  40.7344942  20.7373578  19.0328079  41.9874948  21.3593374
  21.5729373  44.9417872  12.0915921  21.7892987  45.8242510  11.7904749
  21.0923440  44.5504085  11.3621563  16.3128594  47.9003585  18.6686666
  16.1673175  48.2143888  19.5610947  15.8353798  48.5188485  18.1157565
  18.1724977  44.8906133  18.7167555  18.1586546  43.9947226  18.3799853
  18.8897405  44.8976797  19.3505842  20.0251107  45.3243473  20.7620683
  19.7668885  46.2460544  20.7605013  19.4936148  44.9273908  21.4521147
  24.9697296  58.4294260  13.5410768  25.1434174  57.8640683  12.7884621
  25.4626187  59.2295155  13.3590258  10.7874256  50.4408929  21.6074327
  10.2427724  51.2168737  21.7394601  11.6653606  50.7879734  21.4493449
  17.5761873  43.7720513  13.9855126  17.6977784  42.8437159  14.1846013
  17.2863915  43.7859199  13.0733441  20.4453063  41.4575424  17.1221845
  20.4674760  41.5214757  16.1673825  20.8621122  40.6179932  17.3162352
  30.8236687  51.1930683  15.1601068  31.2667833  50.4438008  14.7620191
  29.9463198  51.1840820  14.7774800  25.9572469  57.7461025  10.6407667
  26.6523373  58.3667717  10.8594981  26.2995619  56.8956376  10.9160044
  11.5740278  49.5678826  24.5004484  10.8322014  49.7161461  25.0869114
  11.2533022  49.8287091  23.6371233  27.8563892  55.1960730  12.1694997
  28.3815216  55.5348003  11.4444317  27.7686244  54.2607745  11.9858132
  19.5183941  59.1094804  24.2984874  19.8271067  58.8643951  25.1707574
  20.3159423  59.3141442  23.8103744  19.5404553  61.2632713  16.5290251
  19.1009543  60.7709092  17.2223107  20.2912670  60.7205681  16.2882326
  12.0196892  57.4544254  16.5314879  12.8454912  57.1548026  16.1513522
  11.6690944  56.6851877  16.9804667  16.9878425  56.8070723  18.6012552
  16.3658434  56.1441428  18.3014780  17.6583292  56.8331854  17.9186200
  10.2205497  55.3730581  17.4903812   9.3837405  54.9452755  17.3087813
  10.1929142  55.5663024  18.4274603  17.0602952  45.2852511  28.1945058
  17.1091108  46.1614633  27.8122828  17.6025466  44.7429904  27.6216701
  27.5457798  55.8293634  27.4746195  26.7553342  55.8117773  26.9350695
  27.3091152  56.3681927  28.2295232  27.6655673  52.6786100  24.7878924
  27.7153678  52.5136108  25.7294447  27.5569596  51.8113359  24.3976805
  16.5491932  55.3574646  12.0771013  16.6980052  56.0410110  11.4237685
  17.3558375  55.3379736  12.5920468  24.9559435  48.6617028  26.1038231
  25.8569298  48.5223493  25.8122228  25.0307410  48.8271483  27.0436408
  19.2902241  46.0383883  24.9491417  18.4205550  46.3317449  24.6774005
  19.5261721  46.6224328  25.6698681  29.1673870  55.0983042  25.0320945
  28.8758678  55.4613022  25.8684406  28.5546001  54.3850050  24.8534277
  30.3669552  52.6635921  17.5523516  31.2016444  53.1025726  17.7161076
  30.5028681  52.1874575  16.7331761  27.4161058  50.2215656  23.5001003
  27.8915180  50.4143303  22.6919855  26.4926623  50.2774842  23.2544387
  14.3044565  51.3839824  13.0832082  14.0590607  50.4802153  13.2812292
  14.4740479  51.3856974  12.1411560  21.9941275  42.2563500  22.4656837
  22.5123218  42.9924527  22.1403326  21.6396407  42.5627493  23.3003596
  22.2453869  38.6763782  17.9857734  22.5255622  38.0086971  18.6118160
  23.0304476  38.8692878  17.4732398  20.0487337  57.8522776   9.5482760
  19.4761304  58.4712963   9.0953232  20.6220131  58.4022138  10.0822682
  26.1162727  47.0981416  21.7329309  27.0680150  47.1979514  21.7541533
  25.9466177  46.3059685  22.2427393  24.1377107  44.1837000  21.9188710
  23.5427039  44.4642012  21.2235199  23.8526803  44.6730901  22.6905451
  23.2684597  58.1359926  10.6791342  24.2015270  58.0705488  10.8824218
  23.1807810  58.9716193  10.2205875  25.8972614  57.4525797   7.6395290
  25.8186245  57.1185660   8.5331048  26.7182280  57.9447565   7.6386762
  28.5950805  50.3187536  20.8471609  28.5627125  49.3803537  21.0331292
  29.2051428  50.3971573  20.1137433  28.7445293  47.1098580  20.8929892
  28.2284342  46.3257036  20.7059821  29.6285242  46.7817296  21.0576411
  26.4056020  40.8539595  16.8525704  26.2080841  40.5454683  17.7369036
  27.0155726  41.5801234  16.9823634  34.4127355  51.3803543  19.9877645
  35.1430743  51.1188831  20.5485349  33.8034300  50.6432265  20.0279713
  32.4942652  49.5211406  20.5852097  31.7675815  49.3867370  19.9768588
  32.0789939  49.8288234  21.3908815  20.3172828  53.2401335  28.3499470
  21.2375838  53.4179934  28.5439516  20.2822411  52.2957381  28.1979169
   9.5354993  48.4339929  17.2752744   9.2157778  47.5805237  16.9827118
   8.9888421  48.6488507  18.0310712  13.3134901  51.1502370  20.9922251
  13.5320911  52.0819478  21.0110285  13.7260675  50.7910344  21.7777055
  20.2339119  41.6570455  12.9797939  19.4239847  41.3117540  13.3553185
  20.9223536  41.3477999  13.5685551  22.1629667  40.7348502  14.6022236
  22.7160705  41.1543955  15.2612259  22.3999753  39.8084250  14.6445192
  18.1862766  46.7235576  30.3825000  18.0859493  47.6729933  30.3137091
  17.9684308  46.3953815  29.5101070   9.4043253  52.0542840  19.2445866
   8.7106725  51.6396793  18.7315820  10.1516244  52.0963377  18.6479285
  25.5408474  42.8449027  14.1100900  24.9607143  43.5033831  13.7278952
  25.2744407  42.0226372  13.6988318  23.9912040  42.2454085  16.3122220
  24.4911819  42.3570619  15.5036539  24.6347648  41.9415138  16.9523029
  18.0494036  50.1532714  29.1990061  17.5661118  50.9533075  29.4053950
  18.1354975  50.1640659  28.2457505  11.3179996  51.9861094  17.1211881
  11.2950684  52.0848781  16.1693764  11.6280632  52.8326245  17.4429047
  13.9767374  54.0437249  21.2358495  14.9310627  54.0121191  21.1688427
  13.7779897  53.5827873  22.0508721  14.5666756  52.6138365  23.8029293
  15.3859645  53.1082444  23.8264130  14.8403563  51.6970333  23.7746860
  24.3233352  45.0049118  13.1657248  23.4359207  45.2898768  12.9477443
  24.7387341  44.8442881  12.3184525  27.6747888  45.0295638  16.8811588
  28.4508278  45.5192091  17.1536204  26.9496022  45.4553693  17.3383457
  30.1120447  45.7423258  17.9385528  30.7064938  45.5018994  17.2278836
  30.1847030  45.0230388  18.5659064  12.3317602  59.5856869  18.2528693
  12.1972070  58.8257270  17.6866691  11.9149665  60.3097769  17.7857482
  23.4676565  54.7693792   7.2605268  24.1712416  54.9743795   7.8762924
  22.7439214  55.3370554   7.5254352  24.2974376  50.5203653  13.3807538
  24.2409577  50.9772205  12.5415171  24.8502718  49.7594338  13.2030381
  28.1079182  46.3093385  14.2057658  27.8516116  45.9090021  15.0365866
  27.4832050  47.0237179  14.0807797  32.4191519  49.0489459  16.7128949
  31.8591077  49.1182648  17.4860511  31.8135023  48.8730443  15.9928446
  15.4886728  60.4826186  18.4647136  15.3719112  61.4271618  18.3625826
  14.6679175  60.1799747  18.8532935  25.3763263  55.2076321   9.3103728
  26.2108867  54.7757520   9.1281203  25.2147606  55.0358335  10.2380623
  25.0309155  51.7108435  10.6760068  24.9757959  51.5452706   9.7348512
  24.4055210  52.4184468  10.8322257   9.8201670  46.9476499  24.5021490
  10.4660534  46.4375453  24.9908715   9.6118821  47.6845181  25.0764915
  22.3455062  54.0157347  30.0013630  23.2146222  54.1897999  29.6400265
  21.8661814  54.8351763  29.8789360  16.5141242  61.1354448  21.6803064
  17.4168489  61.1678058  21.9969559  16.2878612  60.2054899  21.6949400
  18.2694844  59.8885434  18.3413143  17.3190475  59.8887296  18.2277515
  18.5727331  59.1418169  17.8249177  22.1557400  37.8059320  14.5091323
  21.3889796  37.2517807  14.6548005  22.5668105  37.8781189  15.3705474
  14.1599161  44.0944116  28.5996504  15.0230623  43.7380921  28.8099829
  13.5864572  43.7558011  29.2871908  30.8137244  65.6773401  19.3420430
  30.4755756  65.5614465  18.4540965  31.6827012  65.2764566  19.3221436
  26.6724060  67.5308877  15.3317321  26.1088925  67.4398814  14.5633609
  26.5576455  66.7108781  15.8119813  24.2188492  69.0260069  18.1701541
  25.0109784  68.6850893  17.7547841  24.4585142  69.1355044  19.0903695
  32.2523619  71.1979845  10.6431786  31.6011598  71.7833925  10.2565799
  33.0467981  71.7286040  10.7026823  26.1779246  68.2868982  11.0418920
  26.9510122  67.7397969  10.9031796  26.5304645  69.1513231  11.2533381
  28.5145524  64.4461648   8.6737370  28.7671044  63.9243169   7.9120833
  27.5770083  64.2827793   8.7764054  33.5588806  63.4497426  16.4812113
  34.3451896  63.0316850  16.1302530  33.8227511  64.3543519  16.6493762
  33.7298884  68.8870277  11.1800770  33.0944717  68.9604903  11.8921675
  33.3996290  69.4763875  10.5019849  38.9597234  63.3872660  17.3845092
  39.6922405  62.8171876  17.6182921  38.2036589  62.9994260  17.8251597
  28.2341812  66.3489754  10.8761745  28.1178070  65.6734657  11.5442829
  28.3444072  65.8622128  10.0593898  30.5773353  65.8099901  14.5808434
  30.2131560  65.2830522  15.2921356  31.4340469  65.4198370  14.4074920
  36.4822654  57.0994234  21.8439700  36.1505979  57.9689645  21.6200915
  35.8868267  56.7830518  22.5233731  30.2178840  60.8389801   9.5769783
  30.3853243  61.7070037   9.9440254  30.0276009  61.0017082   8.6531072
  26.4266655  65.7520576  17.2772317  25.5017151  65.6196791  17.4850009
  26.6751068  66.5314796  17.7742260  36.3751317  61.8189320  18.9233050
  35.4668195  61.7504728  18.6291811  36.3238913  62.2961265  19.7514876
  30.1968061  63.2947458  10.5616449  30.0767686  63.7404509  11.4001930
  29.5020649  63.6432776  10.0029988  23.7875466  65.3953850  18.1116107
  23.9167847  65.6488329  19.0255518  23.1072917  65.9881558  17.7920762
  27.9574953  76.0651100  14.2106581  27.8798983  77.0158925  14.2895061
  27.3536597  75.7196972  14.8681507  38.2412964  60.0205758  20.7010924
  37.5987344  60.3138291  20.0550719  37.7367892  59.9058679  21.5064121
  35.8953127  63.7668931  11.3896784  36.8070983  63.9996318  11.2144481
  35.3862774  64.3505976  10.8271862  34.5022710  68.7494750  18.7810365
  33.8731572  68.9140464  18.0786433  34.1148372  69.1636359  19.5521329
  38.3811941  69.6849188  16.1354729  37.6962980  70.0648089  15.5851762
  38.4655791  70.2944514  16.8686677  33.2389102  59.9426967  19.6386644
  32.3773581  60.2408221  19.9303382  33.2651537  60.1597366  18.7067677
  30.0550671  68.4869158  16.0460450  30.5189017  68.7656861  15.2565073
  29.7907470  67.5852603  15.8633541  26.9474753  68.0340640  18.9840213
  27.5176110  68.4627908  18.3457698  27.5382864  67.7523224  19.6824399
  28.9919558  64.6092310  12.8550015  29.6943601  65.0613354  13.3223942
  28.6600186  63.9676129  13.4829908  22.7344891  62.8675863  18.1567149
  21.9443945  63.1233392  17.6807259  23.2256139  63.6824201  18.2619189
  24.6859637  63.2320442  15.1150625  23.8890800  63.3439136  15.6334121
  24.4585229  63.5707094  14.2491516  21.0182594  63.1206353  20.5882140
  21.2690633  64.0053363  20.8539716  21.5542143  62.9410955  19.8157231
  44.8414694  66.5519851  17.2557401  44.0878402  65.9827249  17.1001406
  44.9762235  66.5182515  18.2028036  30.2313322  71.4233253  12.9312120
  30.0958997  72.2684789  13.3596968  30.7723135  71.6252531  12.1678054
  26.7180662  57.5024833  29.5926476  26.3247607  56.9491031  30.2674120
  27.5346802  57.8135411  29.9832993  23.6842720  68.9408691  13.5040046
  24.1967240  69.7351941  13.6545610  24.3365432  68.2434981  13.4373647
  25.4937604  72.0574447  15.5862799  25.6704233  72.9792412  15.3983783
  26.2894438  71.7432866  16.0157178  24.7789961  64.1039079  25.4624962
  24.6643476  63.2024336  25.7632061  23.9234479  64.3502776  25.1109778
  26.6168920  73.5752621  21.5873141  27.1676345  73.4469684  20.8150135
  25.7780396  73.8747510  21.2368034  33.5805786  54.9463815  21.4611014
  33.2370055  55.8365457  21.3850124  33.9484748  54.7565472  20.5980599
  21.6491636  67.2697345  14.2799616  22.4866858  67.6794354  14.0633324
  21.8269904  66.3296787  14.2499810  33.5456068  64.9372426   9.9683449
  33.0302692  65.7077031  10.2071836  33.2733377  64.2637562  10.5916510
  31.1303179  59.7822127  15.0268687  30.2744776  59.3928977  14.8474326
  31.5430131  59.8614088  14.1668473  32.6602326  57.3168470  19.4260247
  32.1567122  57.2798605  18.6128052  32.9532933  58.2261213  19.4856904
  28.9045212  57.4007200  18.4326429  29.7698209  57.2050008  18.0732318
  28.9722721  57.1717551  19.3595786  38.5190343  67.6904781  11.9036622
  37.7419785  67.3515940  11.4591785  39.1981824  67.6957404  11.2291588
  33.3342372  62.8099518  11.7943230  33.0292507  63.1245667  12.6453373
  34.2872814  62.8880938  11.8370563  31.7788803  68.9689741  13.4436184
  31.2510165  68.2342501  13.1309422  31.2776306  69.7464418  13.1976153
  26.5107531  59.6309408  15.8042796  27.0851283  59.4084589  15.0715989
  27.0978513  59.6998102  16.5571397  35.5687108  65.5183135  16.6107172
  36.0818990  66.1513126  17.1128882  36.2188332  64.9184330  16.2450532
  26.8377118  61.6613869   9.8238681  26.0014430  61.9988555  10.1447956
  26.6981888  61.5262848   8.8865818  28.8130199  56.5050657  14.5317865
  28.1594611  56.1899674  13.9074480  28.7710673  55.8826397  15.2577688
  29.9241404  66.7869952   6.4471157  29.0168465  66.5559205   6.6462306
  30.4212436  65.9907571   6.6345139  32.8309483  75.4967459   9.3667843
  32.1571181  75.7999156   9.9752801  33.2175304  76.2996539   9.0173300
  32.0467939  62.9932590  18.8565513  31.1290501  63.2147537  18.6987201
  32.4628083  63.0678901  17.9977220  32.8302987  64.3924006  13.9868193
  33.5774806  64.9045403  13.6775315  33.0994576  64.0708058  14.8472587
  31.1029637  66.8882546  10.9695147  30.1940856  66.6041579  11.0667617
  31.1324721  67.3081625  10.1098454  36.3348904  70.4989136  14.7386315
  35.8811232  69.6580046  14.7951505  35.7042871  71.1350534  15.0761095
  35.2781824  61.4281122  15.9686982  34.5404581  60.9158508  16.2997225
  35.5308598  60.9881504  15.1570259  34.7781844  72.3365633  15.6736133
  35.0704818  72.8970690  14.9548499  35.2880464  72.6294194  16.4289292
  35.3793451  54.2057374  16.5628752  35.6852328  53.3454737  16.2754667
  36.1046056  54.7974994  16.3627745  21.6717807  64.6088061  14.9510350
  21.4742207  64.0157421  14.2261416  21.1164471  64.3040271  15.6686288
  29.6514531  64.5011167  17.0704943  29.7063141  63.5485003  16.9947419
  28.8405733  64.6570606  17.5546241  30.8005725  68.4291290   8.3083226
  30.3625155  67.7127149   7.8488863  31.5416166  68.6567405   7.7468317
  27.5906891  63.1188227  14.8295322  26.7774757  63.4182397  15.2360514
  28.0865885  62.7243916  15.5469804  29.7415469  73.1145984  16.7629586
  29.6991648  73.3406830  15.8338118  30.6578168  72.8809358  16.9115387
  38.9178840  66.7048487  14.3659544  38.7796738  66.8950083  13.4380734
  38.5615058  67.4667870  14.8227596  27.0820966  60.6906582  20.4456556
  27.7220345  60.5495341  19.7479520  26.2498496  60.4041096  20.0695158
  27.8581270  69.9909013  16.5591549  28.6521868  69.4959333  16.3574124
  27.1472962  69.4626876  16.1959255  24.1664033  64.1352095  12.6351302
  23.2361621  64.0736550  12.8521264  24.2621505  63.6128047  11.8387943
  24.0849582  60.6606907  15.2229543  24.3456400  61.5752241  15.1138704
  24.9066755  60.1931350  15.3726156  25.5574508  62.0744665  22.3928368
  26.2297561  61.8662027  21.7441017  24.7304294  61.8766751  21.9533600
  30.4352546  70.5638035  20.2389386  30.2963631  70.1956819  21.1115324
  29.6467142  71.0785674  20.0673344  31.0300698  75.6647131  11.5814923
  31.2052453  75.1935174  12.3960545  30.3433486  76.2912897  11.8096183
  31.9857761  69.9419637  17.6278224  31.6507593  69.9020407  18.5235874
  31.4861707  69.2764353  17.1548634  25.9602005  65.3487267  23.1530805
  25.8221803  64.6167506  23.7542344  26.8706928  65.2596168  22.8714993
  34.9216952  67.2875672   7.9015283  34.3046123  66.5622500   7.8048336
  34.4533441  68.0485032   7.5582358  25.5961783  78.8136494  18.3554783
  25.8358381  79.4455018  19.0333801  24.7530979  78.4624534  18.6420142
  26.7115498  61.5061096   7.0236588  25.8344965  61.3849897   6.6598834
  27.1873251  60.7147174   6.7715476  18.2317639  66.2938256  17.1178095
  18.9188678  65.9799986  16.5299110  18.0765767  67.1979620  16.8445346
  23.0352361  61.1828452  21.5463119  22.9510549  60.5754122  20.8113529
  22.2135067  61.6737471  21.5472615  29.8979424  73.8587386  14.2699108
  29.1146946  74.4009067  14.3637333  30.5972170  74.3761366  14.6693349
  33.2076075  59.6682016  16.9133314  33.7044774  58.9151978  16.5934384
  32.4363056  59.7046333  16.3476523  41.0605832  65.3722381  18.5551605
  41.0495708  66.2547097  18.1845538  40.1923211  65.0193932  18.3606142
  34.2905855  68.4253703  14.4871737  33.3562134  68.5455166  14.3176441
  34.4682524  67.5226170  14.2231747  29.7911043  61.8099399  16.6404998
  29.4208831  61.2570439  17.3285904  30.2870136  61.2057532  16.0879998
  37.6778407  64.2671022  15.0221771  38.1438859  65.0999014  14.9482074
  38.1285907  63.8016004  15.7267030  35.7454638  70.6114844  12.0207923
  36.0214482  70.4971438  12.9301797  34.8759136  70.2132329  11.9820096
  35.6495069  56.6351609  19.0612673  34.7358149  56.8655836  19.2294879
  36.0788171  56.7190053  19.9126705  32.3808702  74.8601195  15.6640737
  32.5631096  74.0422850  16.1268489  33.2041688  75.0768887  15.2265627
  32.7150867  73.7869380  12.9255785  33.2438634  73.2761834  12.3125947
  32.9779087  73.4711910  13.7901318  23.2167960  71.8033249  20.6691119
  23.8021397  71.0576937  20.8019023  23.0192798  72.1137206  21.5527783
  26.0706615  74.8384496  15.6853561  25.4016990  75.3230624  15.2017601
  25.9319485  75.0853717  16.5996940  17.8085615  64.3738849  19.3895562
  17.8469714  63.8402440  20.1832680  17.3025907  63.8474055  18.7706539
  25.1876377  59.2203390  22.8858104  25.2517703  60.0818221  22.4735502
  25.1243497  58.6077391  22.1530463  24.6628649  61.2926522  26.5331139
  25.2900688  60.9103600  27.1468663  23.8056568  61.0740724  26.8986831
  21.4394192  63.1002951  12.4649493  21.7347633  62.1913630  12.4116547
  20.5382228  63.0790691  12.1430496  33.3480271  74.8210215  19.2699902
  33.2231410  74.0199955  18.7610847  34.0059362  75.3156409  18.7813872
  24.9688439  61.1758948  18.4477042  24.2475025  61.7894916  18.3084515
  25.7581695  61.7116713  18.3693688  35.4115179  72.6219236  20.8979452
  34.4645515  72.5024587  20.8257779  35.7597953  71.7341734  20.9805713
  27.7714753  58.5113374  24.7217694  28.2949155  58.7575671  25.4844003
  27.5527086  59.3433409  24.3020831  23.1682034  60.7817049  12.5888819
  22.8394740  59.9014428  12.4063924  23.5221405  60.7264718  13.4765208
  32.4161613  72.4171952  17.0983804  32.2686575  71.4888659  17.2791374
  33.2415106  72.4392042  16.6140879  26.2823857  61.0690019  12.9564296
  26.6219929  61.5975940  12.2342905  26.7295977  61.4070425  13.7322863
  36.0195735  73.2400510  18.1848677  36.9442282  73.0343372  18.0473128
  35.8511038  72.9916912  19.0938018  28.9767298  59.4527070  22.4067364
  28.6364118  58.6534883  22.8088044  28.2706304  59.7528780  21.8344197
  29.6283770  56.5376382  20.8594687  30.4509839  56.0636860  20.7373578
  29.8721833  57.3166866  21.3593374  28.2692004  59.5664640  11.1557589
  28.9900367  59.9445893  10.6521306  27.6457308  60.2853517  11.2592567
  32.4123127  60.2709789  12.0915921  32.6286741  61.1534427  11.7904749
  31.9317194  59.8796003  11.3621563  27.1522348  63.2295503  18.6686666
  27.0066929  63.5435806  19.5610947  26.6747552  63.8480403  18.1157565
  29.0118731  60.2198051  18.7167555  28.9980300  59.3239144  18.3799853
  29.7291159  60.2268714  19.3505842  30.8644862  60.6535391  20.7620683
  30.6062640  61.5752461  20.7605013  30.3329902  60.2565825  21.4521147
  35.8091051  73.7586178  13.5410768  35.9827928  73.1932600  12.7884621
  36.3019942  74.5587073  13.3590258  21.6268011  65.7700847  21.6074327
  21.0821479  66.5460655  21.7394601  22.5047360  66.1171651  21.4493449
  28.4155627  59.1012431  13.9855126  28.5371538  58.1729077  14.1846013
  28.1257670  59.1151117  13.0733441  31.2846818  56.7867341  17.1221845
  31.3068514  56.8506674  16.1673825  31.7014877  55.9471850  17.3162352
  41.6630442  66.5222601  15.1601068  42.1061588  65.7729926  14.7620191
  40.7856952  66.5132737  14.7774800  36.7966223  73.0752942  10.6407667
  37.4917128  73.6959635  10.8594981  37.1389373  72.2248294  10.9160044
  22.4134032  64.8970743  24.5004484  21.6715768  65.0453379  25.0869114
  22.0926777  65.1579009  23.6371233  38.6957646  70.5252648  12.1694997
  39.2208970  70.8639921  11.4444317  38.6079999  69.5899663  11.9858132
  30.3798307  76.5924631  16.5290251  29.9403297  76.1001010  17.2223107
  31.1306424  76.0497599  16.2882326  22.8590646  72.7836172  16.5314879
  23.6848666  72.4839944  16.1513522  22.5084698  72.0143794  16.9804667
  27.8272179  72.1362640  18.6012552  27.2052189  71.4733345  18.3014780
  28.4977046  72.1623772  17.9186200  21.0599251  70.7022498  17.4903812
  20.2231159  70.2744673  17.3087813  21.0322897  70.8954942  18.4274603
  27.3885686  70.6866564  12.0771013  27.5373807  71.3702028  11.4237685
  28.1952130  70.6671654  12.5920468  41.2063307  67.9927839  17.5523516
  42.0410198  68.4317643  17.7161076  41.3422435  67.5166492  16.7331761
  25.1438319  66.7131741  13.0832082  24.8984361  65.8094071  13.2812292
  25.3134234  66.7148892  12.1411560  32.8335029  57.5855418  22.4656837
  33.3516973  58.3216444  22.1403326  32.4790162  57.8919411  23.3003596
  24.4133967  62.4460099  10.5818243  23.7203212  62.5204454   9.9258279
  24.1685719  61.6820442  11.1039760  33.0847623  54.0055700  17.9857734
  33.3649377  53.3378889  18.6118160  33.8698230  54.1984796  17.4732398
  30.8881092  73.1814694   9.5482760  30.3155059  73.8004881   9.0953232
  31.4613885  73.7314056  10.0822682  34.9770861  59.5128917  21.9188710
  34.3820793  59.7933930  21.2235199  34.6920558  60.0022818  22.6905451
  34.1078351  73.4651844  10.6791342  35.0409025  73.3997406  10.8824218
  34.0201564  74.3008111  10.2205875  36.7366368  72.7817714   7.6395290
  36.6580000  72.4477578   8.5331048  37.5576035  73.2739482   7.6386762
  31.2727890  64.5175507   6.8898813  32.2186995  64.3881715   6.9587231
  30.8942135  63.7790169   7.3668241  39.5839048  62.4390497  20.8929892
  39.0678096  61.6548954  20.7059821  40.4678996  62.1109214  21.0576411
  37.2449775  56.1831513  16.8525704  37.0474596  55.8746601  17.7369036
  37.8549480  56.9093152  16.9823634  45.2521109  66.7095461  19.9877645
  45.9824498  66.4480749  20.5485349  44.6428055  65.9724183  20.0279713
  43.3336406  64.8503323  20.5852097  42.6069570  64.7159288  19.9768588
  42.9183693  65.1580152  21.3908815  29.4570807  62.4425483   6.8253698
  28.5502263  62.1458596   6.9016411  29.7346788  62.1455301   5.9587984
  20.3748748  63.7631847  17.2752744  20.0551532  62.9097155  16.9827118
  19.8282176  63.9780425  18.0310712  24.1528655  66.4794288  20.9922251
  24.3714665  67.4111395  21.0110285  24.5654429  66.1202262  21.7777055
  31.0732873  56.9862373  12.9797939  30.2633601  56.6409458  13.3553185
  31.7617290  56.6769917  13.5685551  33.0023421  56.0640420  14.6022236
  33.5554460  56.4835873  15.2612259  33.2393508  55.1376168  14.6445192
  28.2269592  59.3012418   6.9665677  29.0888756  59.6267317   7.2261494
  28.4119936  58.5143914   6.4538743  20.2437008  67.3834758  19.2445866
  19.5500479  66.9688711  18.7315820  20.9909999  67.4255295  18.6479285
  36.3802228  58.1740945  14.1100900  35.8000897  58.8325749  13.7278952
  36.1138161  57.3518289  13.6988318  34.8305795  57.5746003  16.3122220
  35.3305573  57.6862537  15.5036539  35.4741403  57.2707055  16.9523029
  22.1573750  67.3153012  17.1211881  22.1344438  67.4140699  16.1693764
  22.4674387  68.1618163  17.4429047  24.8161128  69.3729167  21.2358495
  25.7704382  69.3413109  21.1688427  24.6173652  68.9119791  22.0508721
  35.1627106  60.3341035  13.1657248  34.2752961  60.6190686  12.9477443
  35.5781096  60.1734799  12.3184525  38.5141643  60.3587556  16.8811588
  39.2902033  60.8484009  17.1536204  37.7889777  60.7845610  17.3383457
  40.9514201  61.0715175  17.9385528  41.5458692  60.8310911  17.2278836
  41.0240785  60.3522306  18.5659064  23.1711357  74.9148786  18.2528693
  23.0365825  74.1549187  17.6866691  22.7543419  75.6389686  17.7857482
  34.3070320  70.0985710   7.2605268  35.0106170  70.3035712   7.8762924
  33.5832969  70.6662472   7.5254352  35.1368130  65.8495571  13.3807538
  35.0803332  66.3064123  12.5415171  35.6896473  65.0886256  13.2030381
  38.9472936  61.6385303  14.2057658  38.6909870  61.2381939  15.0365866
  38.3225804  62.3529097  14.0807797  43.2585274  64.3781376  16.7128949
  42.6984832  64.4474566  17.4860511  42.6528777  64.2022361  15.9928446
  26.3280483  75.8118103  18.4647136  26.2112867  76.7563536  18.3625826
  25.5072929  75.5091665  18.8532935  36.2157017  70.5368239   9.3103728
  37.0502621  70.1049438   9.1281203  36.0541360  70.3650253  10.2380623
  35.8702910  67.0400352  10.6760068  35.8151713  66.8744624   9.7348512
  35.2448965  67.7476385  10.8322257  20.6595424  62.2768417  24.5021490
  21.3054288  61.7667371  24.9908715  20.4512576  63.0137098  25.0764915
  29.1799035  56.5408461  10.2545386  29.1677705  57.4850301  10.4113657
  30.0722457  56.3578607   9.9604847  27.3534997  76.4646365  21.6803064
  28.2562244  76.4969976  21.9969559  27.1272367  75.5346816  21.6949400
  29.1088599  75.2177352  18.3413143  28.1584230  75.2179213  18.2277515
  29.4121085  74.4710086  17.8249177  32.9951154  53.1351238  14.5091323
  32.2283550  52.5809725  14.6548005  33.4061859  53.2073107  15.3705474
  24.9992915  59.4236034  28.5996504  25.8624377  59.0672839  28.8099829
  24.4258326  59.0849929  29.2871908  44.8441292  81.0537890  19.4058905
  45.4819702  80.9344638  18.7022245  44.7262135  82.0018734  19.4646857
  41.6530999  81.0065318  19.3420430  41.3149510  80.8906383  18.4540965
  42.5220767  80.6056483  19.3221436  37.5117814  82.8600795  15.3317321
  36.9482680  82.7690732  14.5633609  37.3970209  82.0400699  15.8119813
  35.0582246  84.3551986  18.1701541  35.8503538  84.0142811  17.7547841
  35.2978896  84.4646961  19.0903695  43.0917373  86.5271762  10.6431786
  42.4405353  87.1125843  10.2565799  43.8861736  87.0577957  10.7026823
  37.0173000  83.6160900  11.0418920  37.7903876  83.0689887  10.9031796
  37.3698399  84.4805149  11.2533381  38.8558043  84.9437282  24.2485819
  38.5647909  85.8482913  24.1332486  39.4915027  84.9853809  24.9629889
  39.7814250  82.3214130  20.8387179  40.3777822  82.0970153  20.1244142
  39.8389221  81.5798876  21.4412627  39.3539278  79.7753566   8.6737370
  39.6064799  79.2535087   7.9120833  38.4163837  79.6119711   8.7764054
  44.3982561  78.7789344  16.4812113  45.1845650  78.3608767  16.1302530
  44.6621265  79.6835436  16.6493762  44.5692638  84.2162194  11.1800770
  43.9338471  84.2896821  11.8921675  44.2390045  84.8055793  10.5019849
  49.7990988  78.7164577  17.3845092  50.5316160  78.1463794  17.6182921
  49.0430344  78.3286178  17.8251597  39.0735567  81.6781672  10.8761745
  38.9571825  81.0026575  11.5442829  39.1837827  81.1914046  10.0593898
  41.4167108  81.1391819  14.5808434  41.0525315  80.6122440  15.2921356
  42.2734224  80.7490288  14.4074920  47.3216408  72.4286151  21.8439700
  46.9899733  73.2981562  21.6200915  46.7262022  72.1122435  22.5233731
  41.0572595  76.1681718   9.5769783  41.2246997  77.0361955   9.9440254
  40.8669764  76.3309000   8.6531072  43.8147928  84.6298697  21.2435613
  43.5148651  85.5323736  21.1351420  43.4698987  84.3630881  22.0956766
  37.2660409  81.0812494  17.2772317  36.3410906  80.9488708  17.4850009
  37.5144823  81.8606713  17.7742260  47.2145072  77.1481238  18.9233050
  46.3061949  77.0796646  18.6291811  47.1632667  77.6253182  19.7514876
  41.0361816  78.6239376  10.5616449  40.9161441  79.0696427  11.4001930
  40.3414404  78.9724694  10.0029988  34.6269220  80.7245768  18.1116107
  34.7561602  80.9780247  19.0255518  33.9466672  81.3173476  17.7920762
  38.7968708  91.3943018  14.2106581  38.7192737  92.3450843  14.2895061
  38.1930351  91.0488890  14.8681507  49.0806718  75.3497676  20.7010924
  48.4381098  75.6430209  20.0550719  48.5761647  75.2350596  21.5064121
  46.7346882  79.0960849  11.3896784  47.6464738  79.3288236  11.2144481
  46.2256529  79.6797893  10.8271862  41.3718719  78.4558084  22.3991633
  42.2179915  78.8797497  22.5426282  41.3117357  77.7991708  23.0930196
  45.3416464  84.0786668  18.7810365  44.7125327  84.2432382  18.0786433
  44.9542126  84.4928277  19.5521329  49.2205696  85.0141105  16.1354729
  48.5356734  85.3940007  15.5851762  49.3049545  85.6236432  16.8686677
  46.4756628  82.6601064  22.7350072  46.6873523  83.3032824  22.0584453
  46.4286376  81.8263381  22.2672002  44.0782857  75.2718885  19.6386644
  43.2167336  75.5700139  19.9303382  44.1045291  75.4889284  18.7067677
  40.8944426  83.8161076  16.0460450  41.3582771  84.0948779  15.2565073
  40.6301224  82.9144520  15.8633541  37.7868507  83.3632557  18.9840213
  38.3569864  83.7919826  18.3457698  38.3776619  83.0815142  19.6824399
  39.8313312  79.9384228  12.8550015  40.5337355  80.3905272  13.3223942
  39.4993941  79.2968047  13.4829908  33.5738646  78.1967781  18.1567149
  32.7837700  78.4525309  17.6807259  34.0649893  79.0116119  18.2619189
  47.5902456  85.5373020  20.9072430  48.4119899  85.1353207  20.6255111
  47.5864858  85.4341254  21.8588545  35.5253391  78.5612360  15.1150625
  34.7284555  78.6731054  15.6334121  35.2978984  78.8999012  14.2491516
  55.6808449  81.8811768  17.2557401  54.9272157  81.3119166  17.1001406
  55.8155990  81.8474433  18.2028036  41.0707077  86.7525171  12.9312120
  40.9352751  87.5976706  13.3596968  41.6116889  86.9544448  12.1678054
  34.5236474  84.2700609  13.5040046  35.0360995  85.0643859  13.6545610
  35.1759187  83.5726899  13.4373647  36.3331359  87.3866365  15.5862799
  36.5097987  88.3084330  15.3983783  37.1288192  87.0724784  16.0157178
  42.6975553  87.3748737  27.0612463  42.2539407  86.5885116  26.7433367
  43.3592767  87.5627888  26.3956353  37.4562674  88.9044539  21.5873141
  38.0070099  88.7761602  20.8150135  36.6174150  89.2039428  21.2368034
  44.7956791  87.6551537  25.0893864  44.7775266  88.4760418  24.5974133
  45.7176711  87.5305612  25.3144005  44.4199540  70.2755733  21.4611014
  44.0763810  71.1657374  21.3850124  44.7878503  70.0857390  20.5980599
  32.4885391  82.5989263  14.2799616  33.3260613  83.0086271  14.0633324
  32.6663659  81.6588705  14.2499810  44.3849823  80.2664344   9.9683449
  43.8696446  81.0368948  10.2071836  44.1127131  79.5929480  10.5916510
  41.9696934  75.1114044  15.0268687  41.1138530  74.7220895  14.8474326
  42.3823886  75.1906005  14.1668473  43.4996081  72.6460388  19.4260247
  42.9960876  72.6090523  18.6128052  43.7926687  73.5553130  19.4856904
  39.7438966  72.7299117  18.4326429  40.6091963  72.5341926  18.0732318
  39.8116475  72.5009469  19.3595786  49.3584097  83.0196698  11.9036622
  48.5813540  82.6807858  11.4591785  50.0375578  83.0249321  11.2291588
  44.1736126  78.1391436  11.7943230  43.8686262  78.4537585  12.6453373
  45.1266568  78.2172856  11.8370563  42.6182558  84.2981659  13.4436184
  42.0903920  83.5634419  13.1309422  42.1170061  85.0756335  13.1976153
  47.5975404  82.4930680  18.5603230  46.9399078  83.1829941  18.6483359
  48.4015803  82.8827111  18.9037217  37.3501286  74.9601325  15.8042796
  37.9245037  74.7376507  15.0715989  37.9372268  75.0290020  16.5571397
  46.4080863  80.8475052  16.6107172  46.9212745  81.4805044  17.1128882
  47.0582087  80.2476248  16.2450532  37.6770873  76.9905786   9.8238681
  36.8408185  77.3280473  10.1447956  37.5375642  76.8554766   8.8865818
  39.6523953  71.8342574  14.5317865  38.9988366  71.5191591  13.9074480
  39.6104427  71.2118315  15.2577688  40.7635158  82.1161869   6.4471157
  39.8562220  81.8851123   6.6462306  41.2606190  81.3199489   6.6345139
  43.6703237  90.8259376   9.3667843  42.9964936  91.1291073   9.9752801
  44.0569059  91.6288457   9.0173300  42.8861694  78.3224508  18.8565513
  41.9684255  78.5439455  18.6987201  43.3021837  78.3970818  17.9977220
  43.6696741  79.7215923  13.9868193  44.4168560  80.2337321  13.6775315
  43.9388331  79.3999976  14.8472587  41.9423392  82.2174464  10.9695147
  41.0334611  81.9333497  11.0667617  41.9718475  82.6373543  10.1098454
  47.1742659  85.8281054  14.7386315  46.7204986  84.9871964  14.7951505
  46.5436626  86.4642452  15.0761095  46.1175579  76.7573040  15.9686982
  45.3798335  76.2450426  16.2997225  46.3702352  76.3173421  15.1570259
  45.6175598  87.6657550  15.6736133  45.9098573  88.2262607  14.9548499
  46.1274219  87.9586111  16.4289292  46.2187206  69.5349292  16.5628752
  46.5246083  68.6746655  16.2754667  46.9439811  70.1266912  16.3627745
  32.5111562  79.9379978  14.9510350  32.3135962  79.3449339  14.2261416
  31.9558226  79.6332188  15.6686288  40.4908286  79.8303085  17.0704943
  40.5456895  78.8776921  16.9947419  39.6799488  79.9862524  17.5546241
  41.6399479  83.7583208   8.3083226  41.2018909  83.0419067   7.8488863
  42.3809920  83.9859323   7.7468317  38.4300646  78.4480145  14.8295322
  37.6168511  78.7474315  15.2360514  38.9259640  78.0535833  15.5469804
  40.5809223  88.4437901  16.7629586  40.5385402  88.6698748  15.8338118
  41.4971922  88.2101276  16.9115387  49.7572594  82.0340405  14.3659544
  49.6190493  82.2242001  13.4380734  49.4008813  82.7959788  14.8227596
  37.9214720  76.0198500  20.4456556  38.5614100  75.8787259  19.7479520
  37.0892251  75.7333013  20.0695158  49.7841974  84.1016932  19.3770816
  50.2178480  84.0092221  20.2253870  50.4973554  84.0774432  18.7390832
  38.6975024  85.3200930  16.5591549  39.4915623  84.8251251  16.3574124
  37.9866717  84.7918794  16.1959255  43.5169869  87.7019026  20.9103917
  43.5706891  88.2709962  21.6781632  42.6484650  87.8720911  20.5457954
  35.0057788  79.4644012  12.6351302  34.0755376  79.4028468  12.8521264
  35.1015260  78.9419965  11.8387943  34.9243337  75.9898825  15.2229543
  35.1850154  76.9044158  15.1138704  35.7460509  75.5223268  15.3726156
  50.6457523  84.1440633  21.9103701  50.8393413  85.0486443  22.1562976
  50.5458141  83.6848052  22.7442286  41.2746300  85.8929952  20.2389386
  41.1357386  85.5248737  21.1115324  40.4860896  86.4077592  20.0673344
  41.8694452  90.9939049  11.5814923  42.0446208  90.5227092  12.3960545
  41.1827240  91.6204815  11.8096183  42.8251515  85.2711555  17.6278224
  42.4901348  85.2312325  18.5235874  42.3255461  84.6056271  17.1548634
  45.7610707  82.6167589   7.9015283  45.1439878  81.8914418   7.8048336
  45.2927195  83.3776950   7.5582358  47.4164839  87.3266498  25.5621064
  47.3577385  86.6425718  24.8951647  47.8184357  88.0685488  25.1101690
  36.4355537  94.1428412  18.3554783  36.6752136  94.7746936  19.0333801
  35.5924734  93.7916452  18.6420142  37.5509253  76.8353014   7.0236588
  36.6738719  76.7141815   6.6598834  38.0267006  76.0439092   6.7715476
  47.4182246  85.2906082  23.7935044  46.5309025  84.9532004  23.9161442
  47.9880797  84.5589113  24.0303809  29.0711393  81.6230174  17.1178095
  29.7582433  81.3091904  16.5299110  28.9159522  82.5271538  16.8445346
  40.9483399  89.9507534  20.7596287  40.8753571  90.7562506  21.2715591
  40.5060792  90.1499500  19.9344308  40.7373179  89.1879304  14.2699108
  39.9540701  89.7300984  14.3637333  41.4365924  89.7053284  14.6693349
  44.0469829  74.9973934  16.9133314  44.5438529  74.2443896  16.5934384
  43.2756811  75.0338250  16.3476523  51.8999586  80.7014299  18.5551605
  51.8889463  81.5839015  18.1845538  51.0316966  80.3485850  18.3606142
  43.4082083  89.8494368  22.9154445  44.1210055  90.4841833  22.8430347
  42.9172111  89.9458234  22.0994447  45.1299610  83.7545621  14.4871737
  44.1955888  83.8747083  14.3176441  45.3076278  82.8518088  14.2231747
  40.6304798  77.1391317  16.6404998  40.2602585  76.5862357  17.3285904
  41.1263890  76.5349450  16.0879998  48.5172161  79.5962940  15.0221771
  48.9832613  80.4290932  14.9482074  48.9679662  79.1307922  15.7267030
  38.4593996  87.5988812  23.7360016  39.1603456  88.2325295  23.8889410
  37.9889111  87.9403543  22.9755655  46.5848392  85.9406761  12.0207923
  46.8608236  85.8263356  12.9301797  45.7152891  85.5424246  11.9820096
  46.4888824  71.9643527  19.0612673  45.5751904  72.1947754  19.2294879
  46.9181925  72.0481971  19.9126705  46.2595282  80.1533419  21.5612567
  45.6066733  80.4009327  20.9065019  46.6375662  79.3397557  21.2275044
  43.2202456  90.1893112  15.6640737  43.4024851  89.3714768  16.1268489
  44.0435442  90.4060804  15.2265627  43.5544622  89.1161297  12.9255785
  44.0832388  88.6053752  12.3125947  43.8172841  88.8003828  13.7901318
  34.0561714  87.1325167  20.6691119  34.6415151  86.3868855  20.8019023
  33.8586553  87.4429123  21.5527783  36.9100370  90.1676414  15.6853561
  36.2410745  90.6522542  15.2017601  36.7713239  90.4145634  16.5996940
  28.6479369  79.7030767  19.3895562  28.6863469  79.1694358  20.1832680
  28.1419662  79.1765972  18.7706539  41.0505638  92.2020158  22.2836220
  41.6023946  92.3651779  23.0485305  41.3911832  92.7924595  21.6116244
  45.9016513  87.0281415  28.1384874  46.4456417  87.6411373  27.6439829
  45.3203357  87.5860993  28.6551887  32.2787947  78.4294869  12.4649493
  32.5741388  77.5205547  12.4116547  31.3775982  78.4082608  12.1430496
  44.1874025  90.1502133  19.2699902  44.0625165  89.3491873  18.7610847
  44.8453117  90.6448326  18.7813872  35.8082194  76.5050866  18.4477042
  35.0868779  77.1186833  18.3084515  36.5975449  77.0408630  18.3693688
  46.2508934  87.9511153  20.8979452  45.3039269  87.8316504  20.8257779
  46.5991707  87.0633651  20.9805713  34.0075788  76.1108967  12.5888819
  33.6788494  75.2306346  12.4063924  34.3615159  76.0556635  13.4765208
  43.2555367  87.7463869  17.0983804  43.1080330  86.8180577  17.2791374
  44.0808861  87.7683960  16.6140879  37.1217611  76.3981936  12.9564296
  37.4613684  76.9267858  12.2342905  37.5689732  76.7362343  13.7322863
  46.8589489  88.5692428  18.1848677  47.7836036  88.3635289  18.0473128
  46.6904792  88.3208829  19.0938018  39.8161052  74.7818987  22.4067364
  39.4757873  73.9826800  22.8088044  39.1100059  75.0820698  21.8344197
  40.4677524  71.8668300  20.8594687  41.2903593  71.3928778  20.7373578
  40.7115588  72.6458783  21.3593374  39.1085759  74.8956558  11.1557589
  39.8294121  75.2737811  10.6521306  38.4851063  75.6145435  11.2592567
  43.2516881  75.6001707  12.0915921  43.4680496  76.4826345  11.7904749
  42.7710949  75.2087920  11.3621563  37.9916103  78.5587420  18.6686666
  37.8460684  78.8727723  19.5610947  37.5141307  79.1772321  18.1157565
  39.8512486  75.5489968  18.7167555  39.8374055  74.6531062  18.3799853
  40.5684914  75.5560632  19.3505842  41.7038616  75.9827308  20.7620683
  41.4456394  76.9044379  20.7605013  41.1723657  75.5857743  21.4521147
  46.6484805  89.0878096  13.5410768  46.8221683  88.5224518  12.7884621
  47.1413696  89.8878990  13.3590258  39.2549382  74.4304349  13.9855126
  39.3765293  73.5020995  14.1846013  38.9651424  74.4443035  13.0733441
  42.1240572  72.1159259  17.1221845  42.1462269  72.1798592  16.1673825
  42.5408631  71.2763768  17.3162352  52.5024196  81.8514519  15.1601068
  52.9455342  81.1021844  14.7620191  51.6250707  81.8424655  14.7774800
  47.6359978  88.4044860  10.6407667  48.3310882  89.0251553  10.8594981
  47.9783128  87.5540211  10.9160044  49.5351401  85.8544566  12.1694997
  50.0602725  86.1931838  11.4444317  49.4473753  84.9191581  11.9858132
  41.1971450  89.7678639  24.2984874  41.5058576  89.5227786  25.1707574
  41.9946932  89.9725278  23.8103744  41.2192062  91.9216549  16.5290251
  40.7797052  91.4292927  17.2223107  41.9700179  91.3789516  16.2882326
  33.6984401  88.1128090  16.5314879  34.5242420  87.8131862  16.1513522
  33.3478453  87.3435712  16.9804667  38.6665934  87.4654558  18.6012552
  38.0445943  86.8025263  18.3014780  39.3370801  87.4915690  17.9186200
  31.8993006  86.0314416  17.4903812  31.0624914  85.6036590  17.3087813
  31.8716651  86.2246859  18.4274603  49.2245307  86.4877469  27.4746195
  48.4340851  86.4701608  26.9350695  48.9878661  87.0265763  28.2295232
  49.3443182  83.3369936  24.7878924  49.3941187  83.1719943  25.7294447
  49.2357105  82.4697195  24.3976805  38.2279441  86.0158481  12.0771013
  38.3767561  86.6993946  11.4237685  39.0345884  85.9963571  12.5920468
  50.8461379  85.7566877  25.0320945  50.5546187  86.1196858  25.8684406
  50.2333510  85.0433885  24.8534277  52.0457061  83.3219757  17.5523516
  52.8803952  83.7609561  17.7161076  52.1816190  82.8458410  16.7331761
  49.0948567  80.8799492  23.5001003  49.5702689  81.0727138  22.6919855
  48.1714132  80.9358677  23.2544387  35.9832074  82.0423659  13.0832082
  35.7378116  81.1385989  13.2812292  36.1527988  82.0440809  12.1411560
  43.6728784  72.9147335  22.4656837  44.1910727  73.6508362  22.1403326
  43.3183916  73.2211329  23.3003596  35.2527721  77.7752016  10.5818243
  34.5596966  77.8496371   9.9258279  35.0079473  77.0112360  11.1039760
  43.9241378  69.3347618  17.9857734  44.2043131  68.6670807  18.6118160
  44.7091985  69.5276713  17.4732398  41.7274846  88.5106612   9.5482760
  41.1548813  89.1296799   9.0953232  42.3007640  89.0605973  10.0822682
  47.7950236  77.7565252  21.7329309  48.7467659  77.8563349  21.7541533
  47.6253686  76.9643520  22.2427393  45.8164615  74.8420835  21.9188710
  45.2214548  75.1225848  21.2235199  45.5314312  75.3314736  22.6905451
  44.9472106  88.7943762  10.6791342  45.8802779  88.7289323  10.8824218
  44.8595319  89.6300029  10.2205875  47.5760123  88.1109632   7.6395290
  47.4973754  87.7769496   8.5331048  48.3969789  88.6031400   7.6386762
  50.2738314  80.9771371  20.8471609  50.2414634  80.0387372  21.0331292
  50.8838937  81.0555408  20.1137433  42.1121645  79.8467424   6.8898813
  43.0580749  79.7173633   6.9587231  41.7335890  79.1082086   7.3668241
  50.4232802  77.7682415  20.8929892  49.9071851  76.9840872  20.7059821
  51.3072751  77.4401131  21.0576411  48.0843529  71.5123430  16.8525704
  47.8868350  71.2038519  17.7369036  48.6943235  72.2385069  16.9823634
  56.0914864  82.0387378  19.9877645  56.8218252  81.7772666  20.5485349
  55.4821809  81.3016100  20.0279713  54.1730161  80.1795241  20.5852097
  53.4463324  80.0451206  19.9768588  53.7577448  80.4872069  21.3908815
  40.2964562  77.7717401   6.8253698  39.3896017  77.4750514   6.9016411
  40.5740543  77.4747219   5.9587984  31.2142502  79.0923764  17.2752744
  30.8945287  78.2389072  16.9827118  30.6675930  79.3072342  18.0310712
  41.9126628  72.3154291  12.9797939  41.1027356  71.9701375  13.3553185
  42.6011044  72.0061834  13.5685551  43.8417176  71.3932337  14.6022236
  44.3948214  71.8127791  15.2612259  44.0787262  70.4668085  14.6445192
  39.0663346  74.6304336   6.9665677  39.9282510  74.9559234   7.2261494
  39.2513691  73.8435832   6.4538743  31.0830762  82.7126676  19.2445866
  30.3894234  82.2980629  18.7315820  31.8303753  82.7547212  18.6479285
  47.2195983  73.5032862  14.1100900  46.6394652  74.1617667  13.7278952
  46.9531916  72.6810207  13.6988318  45.6699549  72.9037920  16.3122220
  46.1699328  73.0154455  15.5036539  46.3135157  72.5998973  16.9523029
  32.9967505  82.6444929  17.1211881  32.9738193  82.7432617  16.1693764
  33.3068141  83.4910080  17.4429047  35.6554883  84.7021085  21.2358495
  36.6098136  84.6705027  21.1688427  35.4567406  84.2411708  22.0508721
  36.2454265  83.2722201  23.8029293  37.0647154  83.7666279  23.8264130
  36.5191072  82.3554169  23.7746860  46.0020861  75.6632953  13.1657248
  45.1146716  75.9482603  12.9477443  46.4174850  75.5026716  12.3184525
  49.3535397  75.6879474  16.8811588  50.1295787  76.1775926  17.1536204
  48.6283531  76.1137528  17.3383457  51.7907956  76.4007093  17.9385528
  52.3852447  76.1602829  17.2278836  51.8634539  75.6814224  18.5659064
  34.0105111  90.2440704  18.2528693  33.8759579  89.4841105  17.6866691
  33.5937174  90.9681604  17.7857482  45.1464074  85.4277628   7.2605268
  45.8499925  85.6327630   7.8762924  44.4226723  85.9954389   7.5254352
  45.9761885  81.1787489  13.3807538  45.9197086  81.6356040  12.5415171
  46.5290227  80.4178173  13.2030381  49.7866691  76.9677221  14.2057658
  49.5303625  76.5673856  15.0365866  49.1619559  77.6821015  14.0807797
  54.0979028  79.7073294  16.7128949  53.5378586  79.7766483  17.4860511
  53.4922532  79.5314279  15.9928446  37.1674237  91.1410021  18.4647136
  37.0506621  92.0855454  18.3625826  36.3466684  90.8383583  18.8532935
  47.0550772  85.8660157   9.3103728  47.8896376  85.4341355   9.1281203
  46.8935115  85.6942170  10.2380623  46.7096664  82.3692270  10.6760068
  46.6545468  82.2036541   9.7348512  46.0842719  83.0768303  10.8322257
  40.0192789  71.8700379  10.2545386  40.0071459  72.8142219  10.4113657
  40.9116211  71.6870524   9.9604847  38.1928751  91.7938283  21.6803064
  39.0955998  91.8261893  21.9969559  37.9666121  90.8638734  21.6949400
  39.9482353  90.5469269  18.3413143  38.9977984  90.5471131  18.2277515
  40.2514840  89.8002004  17.8249177  43.8344909  68.4643156  14.5091323
  43.0677305  67.9101642  14.6548005  44.2455614  68.5365024  15.3705474
  55.6835047  96.3829808  19.4058905  56.3213457  96.2636555  18.7022245
  55.5655890  97.3310652  19.4646857  52.4924753  96.3357236  19.3420430
  52.1543265  96.2198301  18.4540965  53.3614521  95.9348401  19.3221436
  48.3511569  98.1892712  15.3317321  47.7876434  98.0982649  14.5633609
  48.2363964  97.3692617  15.8119813  52.9744536  97.4892088  25.3006635
  52.9633177  97.0944886  24.4287139  53.1365176  96.7558160  25.8940407
  45.8976001  99.6843904  18.1701541  46.6897293  99.3434729  17.7547841
  46.1372651  99.7938879  19.0903695  47.8566755  98.9452817  11.0418920
  48.6297631  98.3981804  10.9031796  48.2092154  99.8097067  11.2533381
  49.6951797 100.2729199  24.2485819  49.4041663 101.1774830  24.1332486
  50.3308782 100.3145727  24.9629889  50.6208004  97.6506048  20.8387179
  51.2171576  97.4262070  20.1244142  50.6782976  96.9090793  21.4412627
  50.1933033  95.1045483   8.6737370  50.4458553  94.5827005   7.9120833
  49.2557592  94.9411629   8.7764054  55.2376315  94.1081262  16.4812113
  56.0239405  93.6900685  16.1302530  55.5015020  95.0127354  16.6493762
  55.4086393  99.5454112  11.1800770  54.7732226  99.6188739  11.8921675
  55.0783799 100.1347711  10.5019849  60.6384743  94.0456495  17.3845092
  61.3709914  93.4755712  17.6182921  59.8824098  93.6578095  17.8251597
  49.9129321  97.0073589  10.8761745  49.7965579  96.3318493  11.5442829
  50.0231581  96.5205963  10.0593898  52.2560862  96.4683736  14.5808434
  51.8919069  95.9414357  15.2921356  53.1127978  96.0782205  14.4074920
  58.1610163  87.7578069  21.8439700  57.8293488  88.6273480  21.6200915
  57.5655776  87.4414353  22.5233731  51.8966349  91.4973636   9.5769783
  52.0640752  92.3653873   9.9440254  51.7063518  91.6600918   8.6531072
  54.6541682  99.9590615  21.2435613  54.3542405 100.8615654  21.1351420
  54.3092742  99.6922798  22.0956766  48.1054164  96.4104412  17.2772317
  47.1804660  96.2780626  17.4850009  48.3538577  97.1898631  17.7742260
  58.0538826  92.4773155  18.9233050  57.1455704  92.4088564  18.6291811
  58.0026422  92.9545100  19.7514876  51.8755570  93.9531294  10.5616449
  51.7555195  94.3988344  11.4001930  51.1808158  94.3016611  10.0029988
  45.4662975  96.0537685  18.1116107  45.5955356  96.3072164  19.0255518
  44.7860426  96.6465393  17.7920762  49.6362462 106.7234935  14.2106581
  49.5586492 107.6742760  14.2895061  49.0324106 106.3780808  14.8681507
  52.1279692  93.8962801  26.8667948  51.3513026  94.4556721  26.8570812
  52.7670255  94.3819584  27.3882818  59.9200473  90.6789594  20.7010924
  59.2774853  90.9722127  20.0550719  59.4155401  90.5642514  21.5064121
  57.5740636  94.4252767  11.3896784  58.4858492  94.6580154  11.2144481
  57.0650283  95.0089811  10.8271862  50.3826064  96.7048254  26.4285915
  51.1240749  97.2433298  26.1520738  49.6763050  97.3314543  26.5857466
  55.8581404  98.8477395  25.0258076  56.2664760  98.4059805  24.2812708
  55.1358665  98.2730022  25.2792269  52.2112474  93.7850001  22.3991633
  53.0573669  94.2089415  22.5426282  52.1511112  93.1283626  23.0930196
  56.1810219  99.4078585  18.7810365  55.5519081  99.5724299  18.0786433
  55.7935881  99.8220195  19.5521329  60.0599450 100.3433023  16.1354729
  59.3750489 100.7231924  15.5851762  60.1443300 100.9528350  16.8686677
  55.3611919  91.4454370  24.0572807  55.1172851  92.1996430  23.5207082
  55.6371850  91.8239717  24.8920054  57.3150382  97.9892982  22.7350072
  57.5267277  98.6324742  22.0584453  57.2680130  97.1555299  22.2672002
  54.9176611  90.6010803  19.6386644  54.0561090  90.8992056  19.9303382
  54.9439046  90.8181202  18.7067677  51.7338180  99.1452993  16.0460450
  52.1976526  99.4240696  15.2565073  51.4694979  98.2436438  15.8633541
  48.6262262  98.6924475  18.9840213  49.1963619  99.1211743  18.3457698
  49.2170373  98.4107060  19.6824399  50.6707067  95.2676146  12.8550015
  51.3731110  95.7197189  13.3223942  50.3387695  94.6259965  13.4829908
  49.1187428  93.8587902  27.2301225  48.4886089  94.5404183  27.4636621
  49.0123516  93.7470984  26.2854363  44.4132400  93.5259698  18.1567149
  43.6231454  93.7817227  17.6807259  44.9043648  94.3408036  18.2619189
  58.4296210 100.8664938  20.9072430  59.2513654 100.4645125  20.6255111
  58.4258613 100.7633172  21.8588545  46.3647146  93.8904278  15.1150625
  45.5678309  94.0022972  15.6334121  46.1372738  94.2290930  14.2491516
  52.1952813 100.4148981  23.0633140  52.2597246 100.8769388  23.8991312
  51.4863737  99.7846346  23.1915450  42.6970103  93.7790189  20.5882140
  42.9478142  94.6637199  20.8539716  43.2329652  93.5994790  19.8157231
  66.5202203  97.2103686  17.2557401  65.7665911  96.6411084  17.1001406
  66.6549744  97.1766351  18.2028036  51.9100831 102.0817088  12.9312120
  51.7746506 102.9268624  13.3596968  52.4510644 102.2836366  12.1678054
  45.3630229  99.5992526  13.5040046  45.8754749 100.3935777  13.6545610
  46.0152941  98.9018817  13.4373647  47.1725113 102.7158283  15.5862799
  47.3491742 103.6376247  15.3983783  47.9681947 102.4016702  16.0157178
  51.3136132  89.5766547  27.1846732  52.0545845  90.1773700  27.1051195
  51.5454055  88.8344185  26.6264775  46.4577470  94.7622915  25.4624962
  46.3430985  93.8608172  25.7632061  45.6021988  95.0086611  25.1109778
  53.5369308 102.7040655  27.0612463  53.0933162 101.9177033  26.7433367
  54.1986521 102.8919805  26.3956353  48.2956429 104.2336456  21.5873141
  48.8463854 104.1053520  20.8150135  47.4567905 104.5331345  21.2368034
  55.6350546 102.9843455  25.0893864  55.6169021 103.8052336  24.5974133
  56.5570466 102.8597530  25.3144005  52.0923600 100.4987584  25.9317372
  52.6251937  99.7375872  25.7016680  51.5637681 100.2061236  26.6741527
  55.2593295  85.6047650  21.4611014  54.9157564  86.4949292  21.3850124
  55.6272257  85.4149308  20.5980599  43.3279145  97.9281181  14.2799616
  44.1654367  98.3378189  14.0633324  43.5057413  96.9880623  14.2499810
  55.2243577  95.5956261   9.9683449  54.7090201  96.3660866  10.2071836
  54.9520886  94.9221397  10.5916510  52.8090688  90.4405962  15.0268687
  51.9532285  90.0512812  14.8474326  53.2217640  90.5197923  14.1668473
  54.3389835  87.9752305  19.4260247  53.8354631  87.9382441  18.6128052
  54.6320442  88.8845048  19.4856904  50.5832721  88.0591035  18.4326429
  51.4485718  87.8633844  18.0732318  50.6510230  87.8301387  19.3595786
  55.0129881  93.4683353  11.7943230  54.7080016  93.7829503  12.6453373
  55.9660323  93.5464773  11.8370563  53.4576312  99.6273577  13.4436184
  52.9297674  98.8926336  13.1309422  52.9563815 100.4048253  13.1976153
  58.4369158  97.8222597  18.5603230  57.7792833  98.5121859  18.6483359
  59.2409558  98.2119029  18.9037217  48.1895040  90.2893243  15.8042796
  48.7638792  90.0668424  15.0715989  48.7766022  90.3581937  16.5571397
  57.2474617  96.1766970  16.6107172  57.7606499  96.8096962  17.1128882
  57.8975841  95.5768165  16.2450532  48.5164627  92.3197704   9.8238681
  47.6801939  92.6572391  10.1447956  48.3769397  92.1846684   8.8865818
  50.4917708  87.1634492  14.5317865  49.8382120  86.8483509  13.9074480
  50.4498182  86.5410232  15.2577688  53.7255448  93.6516425  18.8565513
  52.8078009  93.8731372  18.6987201  54.1415592  93.7262736  17.9977220
  54.5090496  95.0507841  13.9868193  55.2562315  95.5629238  13.6775315
  54.7782085  94.7291894  14.8472587  52.7817146  97.5466382  10.9695147
  51.8728365  97.2625415  11.0667617  52.8112230  97.9665460  10.1098454
  58.0136413 101.1572971  14.7386315  57.5598741 100.3163881  14.7951505
  57.3830380 101.7934370  15.0761095  56.9569333  92.0864957  15.9686982
  56.2192090  91.5742344  16.2997225  57.2096107  91.6465339  15.1570259
  56.4569353 102.9949468  15.6736133  56.7492327 103.5554525  14.9548499
  56.9667973 103.2878029  16.4289292  57.0580960  84.8641209  16.5628752
  57.3639837  84.0038573  16.2754667  57.7833565  85.4558830  16.3627745
  43.3505316  95.2671896  14.9510350  43.1529716  94.6741257  14.2261416
  42.7951980  94.9624106  15.6686288  51.3302040  95.1595002  17.0704943
  51.3850650  94.2068839  16.9947419  50.5193242  95.3154442  17.5546241
  49.2694400  93.7772062  14.8295322  48.4562266  94.0766233  15.2360514
  49.7653394  93.3827751  15.5469804  51.4202978 103.7729819  16.7629586
  51.3779157 103.9990665  15.8338118  52.3365677 103.5393194  16.9115387
  54.8668612  94.2413887  23.6610215  55.2217999  94.4685360  24.5204681
  55.5140743  94.5732263  23.0387471  60.5966349  97.3632323  14.3659544
  60.4584247  97.5533919  13.4380734  60.2402567  98.1251705  14.8227596
  48.7608475  91.3490418  20.4456556  49.4007854  91.2079177  19.7479520
  47.9286005  91.0624931  20.0695158  60.6235728  99.4308850  19.3770816
  61.0572235  99.3384139  20.2253870  61.3367309  99.4066350  18.7390832
  49.5368779 100.6492848  16.5591549  50.3309377 100.1543168  16.3574124
  48.8260471 100.1210711  16.1959255  54.3563623 103.0310944  20.9103917
  54.4100645 103.6001880  21.6781632  53.4878405 103.2012829  20.5457954
  45.8451542  94.7935930  12.6351302  44.9149130  94.7320385  12.8521264
  45.9409014  94.2711883  11.8387943  45.7637091  91.3190743  15.2229543
  46.0243908  92.2336076  15.1138704  46.5854264  90.8515185  15.3726156
  47.2362017  92.7328500  22.3928368  47.9085070  92.5245862  21.7441017
  46.4091803  92.5350586  21.9533600  61.4851278  99.4732550  21.9103701
  61.6787168 100.3778361  22.1562976  61.3851896  99.0139969  22.7442286
  53.1387589  89.3590441  24.4094029  52.4915504  90.0580390  24.3158505
  53.9088604  89.7926585  24.7770277  56.5466386  99.6239293  27.4844582
  56.3951893  99.3949845  26.5674666  56.5371066 100.5809894  27.4975927
  53.3151723  97.1971206  22.4690848  54.2443783  97.3482365  22.2959816
  52.8942753  97.2855226  21.6139495  52.1140055 101.2221870  20.2389386
  51.9751140 100.8540655  21.1115324  51.3254651 101.7369510  20.0673344
  53.6645270 100.6003473  17.6278224  53.3295102 100.5604243  18.5235874
  53.1649215  99.9348189  17.1548634  47.6389514  96.0071103  23.1530805
  47.5009312  95.2751342  23.7542344  48.5494437  95.9180003  22.8714993
  50.2671814  95.7191062  22.6414485  50.9771433  95.0784254  22.6001103
  50.2241123  95.9703957  23.5640665  58.2558593 102.6558416  25.5621064
  58.1971139 101.9717636  24.8951647  58.6578112 103.3977406  25.1101690
  48.9800748  92.7056280  24.4610124  48.4438105  92.2547019  25.1131720
  48.3917457  92.8402189  23.7180588  47.2749292 109.4720329  18.3554783
  47.5145890 110.1038854  19.0333801  46.4318488 109.1208369  18.6420142
  48.3903007  92.1644931   7.0236588  47.5132474  92.0433732   6.6598834
  48.8660760  91.3731010   6.7715476  58.2576000 100.6197999  23.7935044
  57.3702779 100.2823921  23.9161442  58.8274551  99.8881031  24.0303809
  39.9105148  96.9522091  17.1178095  40.5976187  96.6383821  16.5299110
  39.7553276  97.8563456  16.8445346  44.7139870  91.8412288  21.5463119
  44.6298058  91.2337957  20.8113529  43.8922576  92.3321306  21.5472615
  51.7877154 105.2799452  20.7596287  51.7147325 106.0854423  21.2715591
  51.3454547 105.4791418  19.9344308  51.5766933 104.5171222  14.2699108
  50.7934455 105.0592902  14.3637333  52.2759679 105.0345201  14.6693349
  54.8863584  90.3265851  16.9133314  55.3832283  89.5735814  16.5934384
  54.1150565  90.3630168  16.3476523  62.7393341  96.0306217  18.5551605
  62.7283217  96.9130932  18.1845538  61.8710720  95.6777768  18.3606142
  54.2475837 105.1786286  22.9154445  54.9603810 105.8133751  22.8430347
  53.7565866 105.2750152  22.0994447  55.9693364  99.0837539  14.4871737
  55.0349643  99.2039001  14.3176441  56.1470033  98.1810005  14.2231747
  51.4698552  92.4683234  16.6404998  51.0996340  91.9154275  17.3285904
  51.9657645  91.8641368  16.0879998  59.3565916  94.9254858  15.0221771
  59.8226368  95.7582849  14.9482074  59.8073416  94.4599839  15.7267030
  49.2987751 102.9280729  23.7360016  49.9997210 103.5617212  23.8889410
  48.8282866 103.2695461  22.9755655  57.4242147 101.2698679  12.0207923
  57.7001991 101.1555274  12.9301797  56.5546645 100.8716164  11.9820096
  57.3282578  87.2935445  19.0612673  56.4145658  87.5239672  19.2294879
  57.7575680  87.3773889  19.9126705  57.0989037  95.4825337  21.5612567
  56.4460487  95.7301244  20.9065019  57.4769417  94.6689475  21.2275044
  54.0596211 105.5185030  15.6640737  54.2418605 104.7006686  16.1268489
  54.8829197 105.7352722  15.2265627  54.3938376 104.4453215  12.9255785
  54.9226143 103.9345670  12.3125947  54.6566596 104.1295745  13.7901318
  53.1476610  96.2245148  28.0478604  52.4717247  96.1239277  28.7180979
  53.9704244  96.0684362  28.5114601  44.8955469 102.4617084  20.6691119
  45.4808906 101.7160772  20.8019023  44.6980307 102.7721041  21.5527783
  47.7494124 105.4968332  15.6853561  47.0804499 105.9814459  15.2017601
  47.6106994 105.7437552  16.5996940  39.4873124  95.0322685  19.3895562
  39.5257223  94.4986275  20.1832680  38.9813416  94.5057890  18.7706539
  51.8899393 107.5312075  22.2836220  52.4417701 107.6943697  23.0485305
  52.2305586 108.1216513  21.6116244  46.8663886  89.8787225  22.8858104
  46.9305212  90.7402056  22.4735502  46.8031006  89.2661227  22.1530463
  46.3416158  91.9510358  26.5331139  46.9688197  91.5687435  27.1468663
  45.4844077  91.7324560  26.8986831  56.7410267 102.3573333  28.1384874
  57.2850171 102.9703291  27.6439829  56.1597112 102.9152911  28.6551887
  43.1181701  93.7586787  12.4649493  43.4135142  92.8497465  12.4116547
  42.2169737  93.7374526  12.1430496  55.0267780 105.4794051  19.2699902
  54.9018919 104.6783791  18.7610847  55.6846871 105.9740244  18.7813872
  46.6475948  91.8342783  18.4477042  45.9262534  92.4478751  18.3084515
  47.4369204  92.3700548  18.3693688  57.0902688 103.2803071  20.8979452
  56.1433024 103.1608422  20.8257779  57.4385461 102.3925569  20.9805713
  49.4502262  89.1697210  24.7217694  49.9736664  89.4159506  25.4844003
  49.2314595  90.0017245  24.3020831  44.8469543  91.4400884  12.5888819
  44.5182249  90.5598263  12.4063924  45.2008913  91.3848553  13.4765208
  54.0949122 103.0755787  17.0983804  53.9474084 102.1472494  17.2791374
  54.9202615 103.0975878  16.6140879  47.9611366  91.7273854  12.9564296
  48.3007438  92.2559775  12.2342905  48.4083486  92.0654260  13.7322863
  57.6983244 103.8984346  18.1848677  58.6229791 103.6927207  18.0473128
  57.5298547 103.6500747  19.0938018  50.6554807  90.1110905  22.4067364
  50.3151627  89.3118718  22.8088044  49.9493813  90.4112616  21.8344197
  51.3071279  87.1960217  20.8594687  52.1297348  86.7220695  20.7373578
  51.5509342  87.9750701  21.3593374  49.9479513  90.2248476  11.1557589
  50.6687876  90.6029729  10.6521306  49.3244817  90.9437353  11.2592567
  54.0910636  90.9293625  12.0915921  54.3074250  91.8118263  11.7904749
  53.6104703  90.5379838  11.3621563  48.8309857  93.8879338  18.6686666
  48.6854438  94.2019641  19.5610947  48.3535061  94.5064238  18.1157565
  50.6906240  90.8781886  18.7167555  50.6767809  89.9822979  18.3799853
  51.4078668  90.8852550  19.3505842  52.5432371  91.3119226  20.7620683
  52.2850149  92.2336297  20.7605013  52.0117411  90.9149661  21.4521147
  43.3055520  96.4284682  21.6074327  42.7608988  97.2044490  21.7394601
  44.1834869  96.7755487  21.4493449  50.0943136  89.7596266  13.9855126
  50.2159047  88.8312912  14.1846013  49.8045179  89.7734952  13.0733441
  52.9634327  87.4451177  17.1221845  52.9856023  87.5090510  16.1673825
  53.3802386  86.6055685  17.3162352  63.3417951  97.1806436  15.1601068
  63.7849097  96.4313761  14.7620191  62.4644461  97.1716573  14.7774800
  44.0921541  95.5554579  24.5004484  43.3503277  95.7037214  25.0869114
  43.7714286  95.8162844  23.6371233  52.0365204 105.0970557  24.2984874
  52.3452330 104.8519704  25.1707574  52.8340686 105.3017195  23.8103744
  52.0585816 107.2508466  16.5290251  51.6190806 106.7584845  17.2223107
  52.8093933 106.7081434  16.2882326  44.5378155 103.4420007  16.5314879
  45.3636175 103.1423779  16.1513522  44.1872207 102.6727630  16.9804667
  49.5059688 102.7946476  18.6012552  48.8839698 102.1317181  18.3014780
  50.1764555 102.8207607  17.9186200  42.7386760 101.3606334  17.4903812
  41.9018668 100.9328508  17.3087813  42.7110406 101.5538777  18.4274603
  49.5784216  91.2728264  28.1945058  49.6272371  92.1490386  27.8122828
  50.1206730  90.7305657  27.6216701  60.0639061 101.8169387  27.4746195
  59.2734605 101.7993526  26.9350695  59.8272416 102.3557681  28.2295232
  60.1836936  98.6661853  24.7878924  60.2334941  98.5011861  25.7294447
  60.0750860  97.7989112  24.3976805  49.0673195 101.3450399  12.0771013
  49.2161316 102.0285863  11.4237685  49.8739639 101.3255489  12.5920468
  57.4740699  94.6492781  26.1038231  58.3750562  94.5099246  25.8122228
  57.5488673  94.8147236  27.0436408  51.8083504  92.0259636  24.9491417
  50.9386814  92.3193202  24.6774005  52.0442985  92.6100081  25.6698681
  61.6855133 101.0858795  25.0320945  61.3939942 101.4488775  25.8684406
  61.0727265 100.3725803  24.8534277  62.8850816  98.6511675  17.5523516
  63.7197707  99.0901479  17.7161076  63.0209944  98.1750328  16.7331761
  59.9342322  96.2091409  23.5001003  60.4096443  96.4019056  22.6919855
  59.0107887  96.2650595  23.2544387  46.8225828  97.3715577  13.0832082
  46.5771870  96.4677907  13.2812292  46.9921743  97.3732727  12.1411560
  54.5122538  88.2439253  22.4656837  55.0304482  88.9800280  22.1403326
  54.1577671  88.5503246  23.3003596  46.0921476  93.1043934  10.5818243
  45.3990721  93.1788289   9.9258279  45.8473228  92.3404278  11.1039760
  54.7635132  84.6639535  17.9857734  55.0436886  83.9962725  18.6118160
  55.5485739  84.8568631  17.4732398  58.6343991  93.0857169  21.7329309
  59.5861413  93.1855267  21.7541533  58.4647441  92.2935438  22.2427393
  56.6558370  90.1712753  21.9188710  56.0608302  90.4517765  21.2235199
  56.3708067  90.6606654  22.6905451  61.1132068  96.3063289  20.8471609
  61.0808388  95.3679290  21.0331292  61.7232692  96.3847326  20.1137433
  52.9515399  95.1759342   6.8898813  53.8974504  95.0465550   6.9587231
  52.5729644  94.4374004   7.3668241  61.2626557  93.0974333  20.8929892
  60.7465605  92.3132789  20.7059821  62.1466505  92.7693049  21.0576411
  58.9237284  86.8415348  16.8525704  58.7262105  86.5330436  17.7369036
  59.5336989  87.5676987  16.9823634  66.9308618  97.3679296  19.9877645
  67.6612007  97.1064584  20.5485349  66.3215564  96.6308018  20.0279713
  65.0123915  95.5087159  20.5852097  64.2857079  95.3743123  19.9768588
  64.5971202  95.8163987  21.3908815  52.8354092  99.2277088  28.3499470
  53.7557101  99.4055687  28.5439516  52.8003675  98.2833134  28.1979169
  51.1358316  93.1009318   6.8253698  50.2289772  92.8042431   6.9016411
  51.4134297  92.8039137   5.9587984  42.0536257  94.4215682  17.2752744
  41.7339041  93.5680990  16.9827118  41.5069685  94.6364260  18.0310712
  45.8316164  97.1378123  20.9922251  46.0502174  98.0695231  21.0110285
  46.2441938  96.7786097  21.7777055  52.7520382  87.6446208  12.9797939
  51.9421110  87.2993293  13.3553185  53.4404799  87.3353752  13.5685551
  54.6810930  86.7224255  14.6022236  55.2341969  87.1419708  15.2612259
  54.9181017  85.7960003  14.6445192  50.7044030  92.7111329  30.3825000
  50.6040756  93.6605686  30.3137091  50.4865572  92.3829568  29.5101070
  49.9057101  89.9596254   6.9665677  50.7676265  90.2851152   7.2261494
  50.0907445  89.1727750   6.4538743  41.9224517  98.0418593  19.2445866
  41.2287988  97.6272546  18.7315820  42.6697508  98.0839130  18.6479285
  58.0589737  88.8324780  14.1100900  57.4788406  89.4909584  13.7278952
  57.7925670  88.0102125  13.6988318  56.5093304  88.2329838  16.3122220
  57.0093082  88.3446372  15.5036539  57.1528912  87.9290891  16.9523029
  50.5675300  96.1408467  29.1990061  50.0842381  96.9408828  29.4053950
  50.6536239  96.1516412  28.2457505  43.8361259  97.9736847  17.1211881
  43.8131947  98.0724534  16.1693764  44.1461896  98.8201998  17.4429047
  46.4948637 100.0313002  21.2358495  47.4491891  99.9996945  21.1688427
  46.2961161  99.5703626  22.0508721  47.0848019  98.6014118  23.8029293
  47.9040908  99.0958197  23.8264130  47.3584827  97.6846086  23.7746860
  56.8414615  90.9924871  13.1657248  55.9540470  91.2774521  12.9477443
  57.2568605  90.8318634  12.3184525  60.1929152  91.0171392  16.8811588
  60.9689542  91.5067844  17.1536204  59.4677286  91.4429446  17.3383457
  62.6301710  91.7299011  17.9385528  63.2246201  91.4894747  17.2278836
  62.7028294  91.0106141  18.5659064  44.8498866 105.5732622  18.2528693
  44.7153334 104.8133023  17.6866691  44.4330928 106.2973522  17.7857482
  56.8155639  96.5079406  13.3807538  56.7590841  96.9647958  12.5415171
  57.3683982  95.7470091  13.2030381  60.6260445  92.2969138  14.2057658
  60.3697379  91.8965774  15.0365866  60.0013313  93.0112932  14.0807797
  64.9372783  95.0365212  16.7128949  64.3772341  95.1058401  17.4860511
  64.3316286  94.8606196  15.9928446  48.0067992 106.4701939  18.4647136
  47.8900376 107.4147371  18.3625826  47.1860438 106.1675500  18.8532935
  57.5490418  97.6984188  10.6760068  57.4939222  97.5328459   9.7348512
  56.9236474  98.4060221  10.8322257  42.3382933  92.9352252  24.5021490
  42.9841797  92.4251206  24.9908715  42.1300085  93.6720934  25.0764915
  54.8636326 100.0033100  30.0013630  55.7327485 100.1773752  29.6400265
  54.3843077 100.8227516  29.8789360  50.8586544  87.1992297  10.2545386
  50.8465214  88.1434137  10.4113657  51.7509966  87.0162442   9.9604847
  49.0322506 107.1230201  21.6803064  49.9349753 107.1553811  21.9969559
  48.8059876 106.1930652  21.6949400  50.7876108 105.8761187  18.3413143
  49.8371739 105.8763049  18.2277515  51.0908594 105.1293922  17.8249177
  54.6738663  83.7935073  14.5091323  53.9071059  83.2393560  14.6548005
  55.0849368  83.8656942  15.3705474  46.6780424  90.0819869  28.5996504
  47.5411886  89.7256674  28.8099829  46.1045835  89.7433764  29.2871908
  63.8138291 112.8184005  25.3006635  63.8026931 112.4236804  24.4287139
  63.9758930 112.0850078  25.8940407  60.5345552 115.6021117  24.2485819
  60.2435418 116.5066748  24.1332486  61.1702536 115.6437645  24.9629889
  69.0003917 103.0869987  21.8439700  68.6687242 103.9565398  21.6200915
  68.4049531 102.7706271  22.5233731  56.3056729 111.3829603  18.1116107
  56.4349111 111.6364082  19.0255518  55.6254181 111.9757311  17.7920762
  62.9673446 109.2254718  26.8667948  62.1906781 109.7848639  26.8570812
  63.6064010 109.7111501  27.3882818  70.7594227 106.0081511  20.7010924
  70.1168607 106.3014044  20.0550719  70.2549156 105.8934432  21.5064121
  61.2219819 112.0340172  26.4285915  61.9634503 112.5725216  26.1520738
  60.5156804 112.6606461  26.5857466  66.6975158 114.1769312  25.0258076
  67.1058514 113.7351723  24.2812708  65.9752420 113.6021940  25.2792269
  63.0506228 109.1141919  22.3991633  63.8967424 109.5381333  22.5426282
  62.9904866 108.4575543  23.0930196  66.2005674 106.7746287  24.0572807
  65.9566606 107.5288348  23.5207082  66.4765604 107.1531635  24.8920054
  65.7570366 105.9302720  19.6386644  64.8954845 106.2283974  19.9303382
  65.7832800 106.1473119  18.7067677  59.9581183 109.1879820  27.2301225
  59.3279843 109.8696101  27.4636621  59.8517270 109.0762902  26.2854363
  55.2526155 108.8551616  18.1567149  54.4625209 109.1109145  17.6807259
  55.7437402 109.6699954  18.2619189  63.0346568 115.7440898  23.0633140
  63.0991000 116.2061306  23.8991312  62.3257492 115.1138263  23.1915450
  53.5363858 109.1082106  20.5882140  53.7871896 109.9929116  20.8539716
  54.0723406 108.9286708  19.8157231  59.2361925 103.4900586  29.5926476
  58.8428871 102.9366784  30.2674120  60.0528066 103.8011164  29.9832993
  62.1529886 104.9058465  27.1846732  62.8939600 105.5065618  27.1051195
  62.3847809 104.1636103  26.6264775  57.2971224 110.0914832  25.4624962
  57.1824739 109.1900089  25.7632061  56.4415742 110.3378529  25.1109778
  64.3763062 118.0332572  27.0612463  63.9326916 117.2468951  26.7433367
  65.0380276 118.2211723  26.3956353  62.9317354 115.8279502  25.9317372
  63.4645691 115.0667790  25.7016680  62.4031435 115.5353154  26.6741527
  66.0987049 100.9339568  21.4611014  65.7551319 101.8241210  21.3850124
  66.4666012 100.7441226  20.5980599  65.1783590 103.3044223  19.4260247
  64.6748385 103.2674358  18.6128052  65.4714196 104.2136966  19.4856904
  61.4226475 103.3882953  18.4326429  62.2879472 103.1925761  18.0732318
  61.4903984 103.1593305  19.3595786  59.0288795 105.6185161  15.8042796
  59.6032546 105.3960342  15.0715989  59.6159777 105.6873855  16.5571397
  61.3311462 102.4926410  14.5317865  60.6775875 102.1775427  13.9074480
  61.2891936 101.8702150  15.2577688  67.8974715 100.1933127  16.5628752
  68.2033592  99.3330490  16.2754667  68.6227320 100.7850747  16.3627745
  65.7062366 109.5705804  23.6610215  66.0611754 109.7977277  24.5204681
  66.3534497 109.9024181  23.0387471  59.6002229 106.6782335  20.4456556
  60.2401609 106.5371094  19.7479520  58.7679760 106.3916849  20.0695158
  56.6030846 106.6482660  15.2229543  56.8637663 107.5627994  15.1138704
  57.4248018 106.1807103  15.3726156  58.0755771 108.0620418  22.3928368
  58.7478824 107.8537780  21.7441017  57.2485558 107.8642504  21.9533600
  63.9781343 104.6882358  24.4094029  63.3309258 105.3872308  24.3158505
  64.7482358 105.1218502  24.7770277  67.3860141 114.9531211  27.4844582
  67.2345647 114.7241762  26.5674666  67.3764820 115.9101812  27.4975927
  64.1545477 112.5263123  22.4690848  65.0837537 112.6774283  22.2959816
  63.7336507 112.6147144  21.6139495  58.4783268 111.3363021  23.1530805
  58.3403066 110.6043259  23.7542344  59.3888192 111.2471921  22.8714993
  61.1065569 111.0482980  22.6414485  61.8165187 110.4076172  22.6001103
  61.0634877 111.2995875  23.5640665  59.8194503 108.0348198  24.4610124
  59.2831860 107.5838936  25.1131720  59.2311211 108.1694107  23.7180588
  50.7498902 112.2814009  17.1178095  51.4369942 111.9675739  16.5299110
  50.5947031 113.1855374  16.8445346  55.5533624 107.1704205  21.5463119
  55.4691813 106.5629875  20.8113529  54.7316331 107.6613224  21.5472615
  60.1381505 118.2572647  23.7360016  60.8390965 118.8909130  23.8889410
  59.6676620 118.5987379  22.9755655  68.1676333 102.6227362  19.0612673
  67.2539413 102.8531589  19.2294879  68.5969434 102.7065807  19.9126705
  63.9870364 111.5537065  28.0478604  63.3111001 111.4531195  28.7180979
  64.8097998 111.3976279  28.5114601  55.7349223 117.7909002  20.6691119
  56.3202660 117.0452690  20.8019023  55.5374062 118.1012959  21.5527783
  50.3266878 110.3614602  19.3895562  50.3650978 109.8278193  20.1832680
  49.8207171 109.8349808  18.7706539  57.7057640 105.2079143  22.8858104
  57.7698967 106.0693974  22.4735502  57.6424761 104.5953144  22.1530463
  57.1809913 107.2802275  26.5331139  57.8081952 106.8979353  27.1468663
  56.3237832 107.0616477  26.8986831  67.5804022 117.6865250  28.1384874
  68.1243926 118.2995209  27.6439829  66.9990866 118.2444829  28.6551887
  57.4869703 107.1634701  18.4477042  56.7656288 107.7770669  18.3084515
  58.2762958 107.6992466  18.3693688  60.2896016 104.4989127  24.7217694
  60.8130418 104.7451424  25.4844003  60.0708350 105.3309162  24.3020831
  61.4948561 105.4402823  22.4067364  61.1545382 104.6410636  22.8088044
  60.7887568 105.7404533  21.8344197  62.1465033 102.5252135  20.8594687
  62.9691102 102.0512613  20.7373578  62.3903097 103.3042619  21.3593374
  59.6703612 109.2171256  18.6686666  59.5248193 109.5311559  19.5610947
  59.1928815 109.8356156  18.1157565  61.5299995 106.2073804  18.7167555
  61.5161563 105.3114897  18.3799853  62.2472423 106.2144467  19.3505842
  63.3826125 106.6411144  20.7620683  63.1243903 107.5628214  20.7605013
  62.8511166 106.2441578  21.4521147  54.1449274 111.7576600  21.6074327
  53.6002742 112.5336408  21.7394601  55.0228624 112.1047404  21.4493449
  63.8028081 102.7743094  17.1221845  63.8249778 102.8382427  16.1673825
  64.2196140 101.9347603  17.3162352  54.9315296 110.8846496  24.5004484
  54.1897032 111.0329132  25.0869114  54.6108040 111.1454762  23.6371233
  60.4177970 106.6020181  28.1945058  60.4666126 107.4782304  27.8122828
  60.9600484 106.0597574  27.6216701  70.9032816 117.1461305  27.4746195
  70.1128360 117.1285443  26.9350695  70.6666170 117.6849598  28.2295232
  71.0230691 113.9953771  24.7878924  71.0728696 113.8303778  25.7294447
  70.9144614 113.1281030  24.3976805  68.3134453 109.9784699  26.1038231
  69.2144316 109.8391164  25.8122228  68.3882428 110.1439154  27.0436408
  62.6477259 107.3551554  24.9491417  61.7780568 107.6485120  24.6774005
  62.8836739 107.9391999  25.6698681  65.3516292 103.5731171  22.4656837
  65.8698236 104.3092198  22.1403326  64.9971425 103.8795164  23.3003596
  65.6028887  99.9931453  17.9857734  65.8830640  99.3254642  18.6118160
  66.3879494 100.1860549  17.4732398  69.4737745 108.4149087  21.7329309
  70.4255168 108.5147185  21.7541533  69.3041195 107.6227356  22.2427393
  67.4952124 105.5004670  21.9188710  66.9002057 105.7809683  21.2235199
  67.2101821 105.9898571  22.6905451  63.6747846 114.5569006  28.3499470
  64.5950856 114.7347605  28.5439516  63.6397429 113.6125051  28.1979169
  52.8930011 109.7507600  17.2752744  52.5732796 108.8972908  16.9827118
  52.3463439 109.9656178  18.0310712  56.6709919 112.4670041  20.9922251
  56.8895929 113.3987148  21.0110285  57.0835693 112.1078015  21.7777055
  61.5437784 108.0403246  30.3825000  61.4434511 108.9897603  30.3137091
  61.3259326 107.7121485  29.5101070  52.7618271 113.3710511  19.2445866
  52.0681743 112.9564464  18.7315820  53.5091262 113.4131048  18.6479285
  61.4069054 111.4700385  29.1990061  60.9236136 112.2700745  29.4053950
  61.4929993 111.4808330  28.2457505  57.3342392 115.3604920  21.2358495
  58.2885645 115.3288862  21.1688427  57.1354915 114.8995544  22.0508721
  57.9241774 113.9306036  23.8029293  58.7434663 114.4250115  23.8264130
  58.1978581 113.0138004  23.7746860  53.1776688 108.2644170  24.5021490
  53.8235552 107.7543124  24.9908715  52.9693839 109.0012851  25.0764915
  65.7030080 115.3325017  30.0013630  66.5721240 115.5065670  29.6400265
  65.2236832 116.1519434  29.8789360  65.5132418  99.1226991  14.5091323
  64.7464814  98.5685478  14.6548005  65.9243123  99.1948860  15.3705474
  57.5174179 105.4111787  28.5996504  58.3805641 105.0548592  28.8099829
  56.9439590 105.0725682  29.2871908  70.0755680 118.8192504  29.5926476
  69.6822625 118.2658702  30.2674120  70.8921820 119.1303082  29.9832993
  68.3567933 120.7403705  28.5996504  69.2199395 120.3840509  28.8099829
  67.7833344 120.4017599  29.2871908  31.2957028  43.8370375  12.0251942
  31.2845669  43.4423173  11.1532446  31.4577668  43.1036448  12.6185713
  28.0164290  46.6207487  10.9731126  27.7254156  47.5253118  10.8577792
  28.6521274  46.6624014  11.6875196  32.9754175  46.3068902   7.9680920
  32.6754898  47.2093941   7.8596727  32.6305234  46.0401085   8.8202073
  30.4492184  40.2441088  13.5913254  29.6725518  40.8035008  13.5816119
  31.0882747  40.7297871  14.1128124  28.7038557  43.0526541  13.1531221
  29.4453241  43.5911585  12.8766045  27.9975542  43.6792830  13.3102773
  34.1793896  45.1955682  11.7503383  34.5877252  44.7538092  11.0058015
  33.4571158  44.6208309  12.0037576  30.5324966  40.1328289   9.1236940
  31.3786161  40.5567702   9.2671589  30.4723604  39.4761913   9.8175503
  34.5022711  45.7556872   5.5055672  33.8731573  45.9202587   4.8031739
  34.1148373  46.1698482   6.2766636  38.3811943  46.6911310   2.8600035
  37.6962981  47.0710212   2.3097069  38.4655792  47.3006637   3.5931983
  33.6824412  37.7932657  10.7818113  33.4385343  38.5474718  10.2452389
  33.9584342  38.1718005  11.6165360  35.6362874  44.3371269   9.4595379
  35.8479770  44.9803029   8.7829760  35.5892623  43.5033586   8.9917309
  27.4399920  40.2066190  13.9546531  26.8098581  40.8882470  14.1881928
  27.3336008  40.0949271  13.0099670  36.7508702  47.2143225   7.6317736
  37.5726146  46.8123412   7.3500418  36.7471105  47.1111459   8.5833852
  30.5165306  46.7627268   9.7878447  30.5809738  47.2247675  10.6236619
  29.8076230  46.1324633   9.9160757  44.8414695  43.5581973   3.9802708
  44.0878404  42.9889371   3.8246712  44.9762237  43.5244638   4.9273342
  26.7180663  34.5086955  16.3171782  26.3247609  33.9553154  16.9919427
  27.5346803  34.8197534  16.7078300  29.6348624  35.9244834  13.9092039
  30.3758337  36.5251988  13.8296501  29.8666547  35.1822472  13.3510081
  24.7789962  41.1101202  12.1870269  24.6643477  40.2086459  12.4877367
  23.9234480  41.3564899  11.8355085  31.8581800  49.0518942  13.7857769
  31.4145654  48.2655321  13.4678674  32.5199013  49.2398093  13.1201660
  26.6168921  50.5814744   8.3118448  27.1676346  50.4531807   7.5395442
  25.7780397  50.8809633   7.9613340  33.9563038  49.3321742  11.8139170
  33.9381513  50.1530623  11.3219440  34.8782958  49.2075817  12.0389312
  30.4136092  46.8465871  12.6562679  30.9464429  46.0854160  12.4261987
  29.8850173  46.5539523  13.3986833  36.7581651  44.1700884   5.2848537
  36.1005325  44.8600146   5.3728666  37.5622050  44.5597316   5.6282523
  34.7781845  49.3427755   2.3981440  35.0704819  49.9032812   1.6793805
  35.2880466  49.6356316   3.1534599  33.1881104  40.5892174  10.3855522
  33.5430492  40.8163647  11.2449988  33.8353235  40.9210551   9.7632777
  38.9448221  45.7787137   6.1016123  39.3784727  45.6862426   6.9499177
  39.6579801  45.7544637   5.4636139  32.6776115  49.3789231   7.6349223
  32.7313138  49.9480167   8.4026939  31.8090897  49.5491116   7.2703260
  39.8063770  45.8210837   8.6349008  39.9999660  46.7256648   8.8808283
  39.7064388  45.3618257   9.4687593  31.4600081  35.7068728  11.1339335
  30.8127996  36.4058678  11.0403812  32.2301096  36.1404872  11.5015584
  34.8678879  45.9717580  14.2089889  34.7164385  45.7428132  13.2919972
  34.8583558  46.9288182  14.2221234  31.6364215  43.5449493   9.1936155
  32.5656275  43.6960653   9.0205122  31.2155245  43.6333514   8.3384802
  30.4352547  47.5700157   6.9634693  30.2963633  47.2018942   7.8360631
  29.6467143  48.0847797   6.7918650  25.9602006  42.3549390   9.8776112
  25.8221804  41.6229629  10.4787651  26.8706930  42.2658290   9.5960299
  28.5884307  42.0669349   9.3659791  29.2983925  41.4262542   9.3246410
  28.5453615  42.3182244  10.2885972  36.5771085  49.0036703  12.2866370
  36.5183632  48.3195923  11.6196953  36.9790604  49.7455693  11.8346996
  25.5961784  55.8198617   5.0800089  25.8358382  56.4517141   5.7579108
  24.7530981  55.4686657   5.3665449  36.5788493  46.9676287  10.5180350
  35.6915271  46.6302208  10.6406749  37.1487044  46.2359318  10.7549116
  30.1089646  51.6277739   7.4841593  30.0359818  52.4332711   7.9960898
  29.6667039  51.8269705   6.6589615  41.0605833  42.3784504   5.2796912
  41.0495709  43.2609219   4.9090845  40.1923213  42.0256055   5.0851449
  32.5688330  51.5264573   9.6399752  33.2816302  52.1612038   9.5675653
  32.0778358  51.6228439   8.8239754  27.6200243  49.2759017  10.4605323
  28.3209703  49.9095499  10.6134717  27.1495358  49.6173748   9.7000962
  35.4201529  41.8303624   8.2857873  34.7672979  42.0779531   7.6310326
  35.7981909  41.0167762   7.9520350  32.3808703  51.8663317   2.3886043
  32.5631097  51.0484973   2.8513796  33.2041689  52.0831009   1.9510933
  31.4689102  42.5723435  14.7723910  30.7929739  42.4717564  15.4426285
  32.2916736  42.4162649  15.2359907  23.2167961  48.8095372   7.3936426
  23.8021398  48.0639059   7.5264330  23.0192800  49.1199328   8.2773089
  30.2111885  53.8790362   9.0081526  30.7630193  54.0421984   9.7730611
  30.5518078  54.4694800   8.3361551  24.6628651  38.2988645  13.2576445
  25.2900690  37.9165722  13.8713970  23.8056570  38.0802847  13.6232138
  35.0622759  48.7051620  14.8630181  35.6062663  49.3181578  14.3685135
  34.4809604  49.2631198  15.3797194  33.3480272  51.8272338   5.9945208
  33.2231412  51.0262078   5.4856154  34.0059363  52.3218531   5.5059178
  35.4115181  49.6281358   7.6224758  34.4645516  49.5086709   7.5503085
  35.7597954  48.7403856   7.7051020  32.4161614  49.4234074   3.8229111
  32.2686576  48.4950782   4.0036681  33.2415107  49.4454165   3.3386186
  36.0195736  50.2462633   4.9093983  36.9442283  50.0405494   4.7718435
  35.8511039  49.9979034   5.8183325  30.3577696  51.4448844  11.0230181
  30.6664823  51.1997991  11.8952880  31.1553178  51.6495483  10.5349051
  30.3798308  53.5986754   3.2535557  29.9403299  53.1063132   3.9468414
  31.1306425  53.0559721   3.0127632  27.8996708  37.6206551  14.9190365
  27.9484863  38.4968674  14.5368134  28.4419222  37.0783944  14.3462008
  38.3851554  48.1647674  14.1991502  37.5947097  48.1471813  13.6596001
  38.1484908  48.7035968  14.9540539  38.5049429  45.0140140  11.5124230
  38.5547434  44.8490148  12.4539753  38.3963352  44.1467399  11.1222111
  35.7953191  40.9971068  12.8283537  36.6963054  40.8577533  12.5367535
  35.8701166  41.1625523  13.7681715  30.1295996  38.3737923  11.6736724
  29.2599306  38.6671489  11.4019312  30.3655477  38.9578368  12.3943987
  40.0067626  47.4337082  11.7566252  39.7152434  47.7967063  12.5929713
  39.3939757  46.7204090  11.5779584  41.2063308  44.9989962   4.2768822
  42.0410199  45.4379766   4.4406383  41.3422437  44.5228615   3.4577068
  38.2554814  42.5569697  10.2246310  38.7308935  42.7497343   9.4165161
  37.3320379  42.6128882   9.9789694  36.9556483  39.4335457   8.4574616
  37.9073906  39.5333554   8.4786840  36.7859933  38.6413725   8.9672700
  39.4344561  42.6541576   7.5716915  39.4020881  41.7157577   7.7576599
  40.0445184  42.7325613   6.8382740  39.5839049  39.4452620   7.6175198
  39.0678098  38.6611076   7.4305127  40.4678998  39.1171336   7.7821718
  45.2521110  43.7157583   6.7122952  45.9824499  43.4542871   7.2730655
  44.6428056  42.9786305   6.7525020  43.3336408  41.8565446   7.3097403
  42.6069571  41.7221411   6.7013895  42.9183694  42.1642274   8.1154121
  31.1566584  45.5755375  15.0744776  32.0769593  45.7533974  15.2684823
  31.1216167  44.6311421  14.9224476  29.0256522  39.0589616  17.1070306
  28.9253249  40.0083973  17.0382397  28.8078064  38.7307855  16.2346376
  28.8887792  42.4886755  15.9235368  28.4054874  43.2887115  16.1299257
  28.9748731  42.4994700  14.9702812  24.8161129  46.3791289   7.9603802
  25.7704383  46.3475232   7.8933733  24.6173653  45.9181913   8.7754028
  25.4060512  44.9492405  10.5274599  26.2253401  45.4436484  10.5509437
  25.6797319  44.0324374  10.4992167  26.3280484  52.8180226   5.1892442
  26.2112868  53.7625658   5.0871133  25.5072930  52.5153788   5.5778242
  33.1848818  46.3511387  16.7258937  34.0539978  46.5252039  16.3645572
  32.7055569  47.1705804  16.6034666  27.3534998  53.4708488   8.4048371
  28.2562245  53.5032098   8.7214866  27.1272368  52.5408939   8.4194707
  29.1088600  52.2239474   5.0658449  28.1584231  52.2241336   4.9522822
  29.4121086  51.4772209   4.5494484  24.9992917  36.4298156  15.3241811
  25.8624378  36.0734961  15.5345135  24.4258327  36.0912051  16.0117215
  44.8441294  58.0600013   6.1304212  45.4819704  57.9406760   5.4267552
  44.7262137  59.0080857   6.1892164  41.6531000  58.0127441   6.0665736
  41.3149511  57.8968506   5.1786271  42.5220768  57.6118606   6.0466743
  37.5117816  59.8662917   2.0562627  36.9482681  59.7752854   1.2878915
  37.3970211  59.0462822   2.5365120  42.1350783  59.1662293  12.0251942
  42.1239424  58.7715091  11.1532446  42.2971422  58.4328365  12.6185713
  35.0582248  61.3614109   4.8946848  35.8503540  61.0204934   4.4793147
  35.2978898  61.4709084   5.8149001  43.0917374  63.5333885  -2.6322908
  42.4405354  64.1187965  -3.0188894  43.8861737  64.0640080  -2.5727870
  37.0173002  60.6223022  -2.2335773  37.7903878  60.0752009  -2.3722898
  37.3698400  61.4867271  -2.0221312  38.8558044  61.9499404  10.9731126
  38.5647910  62.8545035  10.8577792  39.4915028  61.9915932  11.6875196
  39.7814251  59.3276253   7.5632486  40.3777823  59.1032275   6.8489449
  39.8389222  58.5860998   8.1657933  44.3982562  55.7851467   3.2057420
  45.1845651  55.3670890   2.8547837  44.6621266  56.6897559   3.3739068
  44.5692640  61.2224317  -2.0953923  43.9338472  61.2958943  -1.3833019
  44.2390046  61.8117916  -2.7734844  49.7990989  55.7226700   4.1090398
  50.5316161  55.1525917   4.3428228  49.0430345  55.3348300   4.5496904
  39.0735568  58.6843794  -2.3992948  38.9571826  58.0088698  -1.7311864
  39.1837828  58.1976168  -3.2160795  41.4167109  58.1453941   1.3053741
  41.0525316  57.6184562   2.0166662  42.2734225  57.7552410   1.1320226
  47.3216410  49.4348274   8.5685007  46.9899734  50.3043685   8.3446222
  46.7262023  49.1184558   9.2479037  43.8147929  61.6360820   7.9680920
  43.5148652  62.5385859   7.8596727  43.4698989  61.3693003   8.8202073
  37.2660411  58.0874617   4.0017624  36.3410907  57.9550831   4.2095316
  37.5144824  58.8668836   4.4987566  47.2145073  54.1543360   5.6478357
  46.3061950  54.0858769   5.3537118  47.1632669  54.6315305   6.4760182
  41.0361817  55.6301499  -2.7138244  40.9161442  56.0758549  -1.8752764
  40.3414405  55.9786816  -3.2724706  34.6269222  57.7307890   4.8361413
  34.7561603  57.9842369   5.7500825  33.9466673  58.3235598   4.5166068
  38.7968709  68.4005140   0.9351887  38.7192739  69.3512965   1.0140368
  38.1930353  68.0551013   1.5926814  41.2885939  55.5733006  13.5913254
  40.5119273  56.1326926  13.5816119  41.9276502  56.0589789  14.1128124
  49.0806719  52.3559799   7.4256231  48.4381100  52.6492332   6.7796025
  48.5761648  52.2412719   8.2309428  46.7346883  56.1022972  -1.8857910
  47.6464739  56.3350358  -2.0610212  46.2256530  56.6860016  -2.4482831
  39.5432311  58.3818459  13.1531221  40.2846995  58.9203503  12.8766045
  38.8369297  59.0084748  13.3102773  45.0187651  60.5247600  11.7503383
  45.4271007  60.0830010  11.0058015  44.2964912  59.9500227  12.0037576
  41.3718721  55.4620206   9.1236940  42.2179916  55.8859620   9.2671589
  41.3117358  54.8053831   9.8175503  45.3416465  61.0848790   5.5055672
  44.7125328  61.2494504   4.8031739  44.9542127  61.4990400   6.2766636
  49.2205697  62.0203228   2.8600035  48.5356735  62.4002129   2.3097069
  49.3049547  62.6298555   3.5931983  44.5218166  53.1224575  10.7818113
  44.2779098  53.8766635  10.2452389  44.7978097  53.5009922  11.6165360
  46.4756629  59.6663187   9.4595379  46.6873524  60.3094947   8.7829760
  46.4286377  58.8325504   8.9917309  44.0782858  52.2781008   6.3631951
  43.2167337  52.5762261   6.6548689  44.1045292  52.4951407   5.4312984
  40.8944427  60.8223198   2.7705757  41.3582773  61.1010901   1.9810379
  40.6301225  59.9206643   2.5878847  37.7868508  60.3694680   5.7085520
  38.3569865  60.7981948   5.0703004  38.3776620  60.0877264   6.4069706
  39.8313313  56.9446351  -0.4204678  40.5337357  57.3967394   0.0469248
  39.4993942  56.3030169   0.2075215  38.2793675  55.5358107  13.9546531
  37.6492335  56.2174388  14.1881928  38.1729763  55.4241189  13.0099670
  33.5738647  55.2029903   4.8812455  32.7837701  55.4587432   4.4052566
  34.0649895  56.0178241   4.9864496  47.5902457  62.5435142   7.6317736
  48.4119901  62.1415330   7.3500418  47.5864860  62.4403377   8.5833852
  35.5253393  55.5674483   1.8395932  34.7284556  55.6793177   2.3579428
  35.2978985  55.9061135   0.9736823  41.3559060  62.0919186   9.7878447
  41.4203493  62.5539593  10.6236619  40.6469984  61.4616551   9.9160757
  31.8576350  55.4560394   7.3127446  32.1084389  56.3407404   7.5785022
  32.3935899  55.2764995   6.5402538  55.6808450  58.8873891   3.9802708
  54.9272158  58.3181289   3.8246712  55.8155991  58.8536555   4.9273342
  41.0707078  63.7587293  -0.3442573  40.9352753  64.6038829   0.0842275
  41.6116890  63.9606571  -1.1076639  37.5574418  49.8378873  16.3171782
  37.1641363  49.2845072  16.9919427  38.3740558  50.1489452  16.7078300
  34.5236475  61.2762731   0.2285352  35.0360996  62.0705982   0.3790917
  35.1759188  60.5789022   0.1618954  36.3331360  64.3928488   2.3108105
  36.5097988  65.3146452   2.1229089  37.1288194  64.0786907   2.7402485
  40.4742379  51.2536752  13.9092039  41.2152092  51.8543905  13.8296501
  40.7060301  50.5114390  13.3510081  35.6183717  56.4393119  12.1870269
  35.5037232  55.5378377  12.4877367  34.7628234  56.6856816  11.8355085
  42.6975554  64.3810860  13.7857769  42.2539408  63.5947238  13.4678674
  43.3592768  64.5690010  13.1201660  37.4562675  65.9106661   8.3118448
  38.0070101  65.7823725   7.5395442  36.6174151  66.2101550   7.9613340
  44.7956792  64.6613660  11.8139170  44.7775268  65.4822541  11.3219440
  45.7176712  64.5367735  12.0389312  41.2529847  62.1757789  12.6562679
  41.7858183  61.4146077  12.4261987  40.7243928  61.8831441  13.3986833
  44.4199541  47.2817855   8.1856321  44.0763811  48.1719497   8.1095431
  44.7878504  47.0919513   7.3225906  32.4885392  59.6051386   1.0044923
  33.3260614  60.0148394   0.7878630  32.6663660  58.6650828   0.9745117
  44.3849824  57.2726466  -3.3071244  43.8696448  58.0431071  -3.0682857
  44.1127133  56.5991602  -2.6838183  41.9696935  52.1176167   1.7513994
  41.1138532  51.7283017   1.5719633  42.3823887  52.1968128   0.8913780
  43.4996082  49.6522510   6.1505554  42.9960877  49.6152645   5.3373359
  43.7926689  50.5615253   6.2102210  39.7438968  49.7361240   5.1571736
  40.6091965  49.5404049   4.7977625  39.8116477  49.5071592   6.0841092
  49.3584098  60.0258821  -1.3718071  48.5813541  59.6869980  -1.8162909
  50.0375579  60.0311444  -2.0463106  44.1736127  55.1453558  -1.4811463
  43.8686263  55.4599707  -0.6301320  45.1266569  55.2234978  -1.4384130
  42.6182559  61.3043782   0.1681491  42.0903921  60.5696541  -0.1445272
  42.1170062  62.0818458  -0.0778541  47.5975405  59.4992802   5.2848537
  46.9399080  60.1892064   5.3728666  48.4015804  59.8889234   5.6282523
  37.3501287  51.9663448   2.5288102  37.9245039  51.7438629   1.7961295
  37.9372269  52.0352142   3.2816704  46.4080864  57.8537175   3.3352479
  46.9212746  58.4867167   3.8374189  47.0582088  57.2538370   2.9695839
  39.6523955  48.8404697   1.2563172  38.9988367  48.5253714   0.6319787
  39.6104429  48.2180437   1.9822995  43.6703238  67.8321499  -3.9086850
  42.9964937  68.1353196  -3.3001892  44.0569060  68.6350579  -4.2581393
  42.8861695  55.3286630   5.5810819  41.9684256  55.5501577   5.4232507
  43.3021839  55.4032941   4.7222527  43.6696743  56.7278046   0.7113500
  44.4168562  57.2399443   0.4020622  43.9388332  56.4062099   1.5717893
  41.9423393  59.2236587  -2.3059546  41.0334612  58.9395620  -2.2087076
  41.9718477  59.6435665  -3.1656239  47.1742660  62.8343176   1.4631622
  46.7204987  61.9934086   1.5196812  46.5436627  63.4704575   1.8006402
  46.1175580  53.7635162   2.6932289  45.3798337  53.2512548   3.0242532
  46.3702353  53.3235544   1.8815566  45.6175599  64.6719673   2.3981440
  45.9098574  65.2324730   1.6793805  46.1274220  64.9648234   3.1534599
  46.2187207  46.5411414   3.2874058  46.5246084  45.6808778   2.9999973
  46.9439812  47.1329034   3.0873052  32.5111563  56.9442101   1.6755656
  32.3135963  56.3511462   0.9506723  31.9558227  56.6394311   2.3931595
  40.4908287  56.8365207   3.7950249  40.5456897  55.8839044   3.7192726
  39.6799489  56.9924646   4.2791548  41.6399481  60.7645330  -4.9671467
  41.2018911  60.0481189  -5.4265830  42.3809921  60.9921445  -5.5286376
  38.4300647  55.4542267   1.5540628  37.6168512  55.7536438   1.9605820
  38.9259641  55.0597956   2.2715110  40.5809225  65.4500024   3.4874893
  40.5385403  65.6760870   2.5583425  41.4971924  65.2163399   3.6360694
  44.0274858  55.9184092  10.3855522  44.3824246  56.1455565  11.2449988
  44.6746990  56.2502468   9.7632777  49.7572595  59.0402527   1.0904851
  49.6190494  59.2304123   0.1626040  49.4008814  59.8021910   1.5472902
  37.9214722  53.0260623   7.1701863  38.5614101  52.8849382   6.4724826
  37.0892252  52.7395136   6.7940465  49.7841975  61.1079054   6.1016123
  50.2178482  61.0154344   6.9499177  50.4973556  61.0836555   5.4636139
  38.6975025  62.3263053   3.2836856  39.4915624  61.8313373   3.0819431
  37.9866718  61.7980916   2.9204561  43.5169870  64.7081149   7.6349223
  43.5706892  65.2772085   8.4026939  42.6484651  64.8783034   7.2703260
  35.0057789  56.4706135  -0.6403392  34.0755377  56.4090590  -0.4233430
  35.1015261  55.9482088  -1.4366750  34.9243338  52.9960948   1.9474850
  35.1850155  53.9106281   1.8384010  35.7460510  52.5285390   2.0971463
  36.3968263  54.4098705   9.1173674  37.0691317  54.2016067   8.4686323
  35.5698050  54.2120791   8.6778907  50.6457525  61.1502755   8.6349008
  50.8393415  62.0548566   8.8808283  50.5458143  60.6910174   9.4687593
  42.2993835  51.0360646  11.1339335  41.6521750  51.7350595  11.0403812
  43.0694851  51.4696790  11.5015584  45.7072633  61.3009498  14.2089889
  45.5558140  61.0720050  13.2919972  45.6977313  62.2580099  14.2221234
  42.4757970  58.8741411   9.1936155  43.4050030  59.0252570   9.0205122
  42.0549000  58.9625431   8.3384802  41.2746301  62.8992075   6.9634693
  41.1357387  62.5310859   7.8360631  40.4860898  63.4139714   6.7918650
  41.8694453  68.0001172  -1.6939771  42.0446209  67.5289215  -0.8794148
  41.1827241  68.6266938  -1.4658510  42.8251517  62.2773678   4.3523530
  42.4901349  62.2374448   5.2481180  42.3255462  61.6118394   3.8793941
  36.7995761  57.6841308   9.8776112  36.6615558  56.9521547  10.4787651
  37.7100684  57.5950208   9.5960299  45.7610708  59.6229712  -5.3739410
  45.1439879  58.8976540  -5.4706357  45.2927197  60.3839072  -5.7172336
  39.4278061  57.3961267   9.3659791  40.1377680  56.7554459   9.3246410
  39.3847369  57.6474162  10.2885972  47.4164840  64.3328620  12.2866370
  47.3577386  63.6487841  11.6196953  47.8184358  65.0747610  11.8346996
  38.1406995  54.3826485  11.1855431  37.6044352  53.9317223  11.8377027
  37.5523704  54.5172394  10.4425895  36.4355539  71.1490534   5.0800089
  36.6752137  71.7809058   5.7579108  35.5924735  70.7978574   5.3665449
  47.4182247  62.2968204  10.5180350  46.5309026  61.9594126  10.6406749
  47.9880798  61.5651236  10.7549116  29.0711394  58.6292296   3.8423402
  29.7582434  58.3154026   3.2544417  28.9159523  59.5333661   3.5690653
  33.8746116  53.5182493   8.2708425  33.7904305  52.9108162   7.5358835
  33.0528823  54.0091511   8.2717922  40.9483401  66.9569657   7.4841593
  40.8753572  67.7624628   7.9960898  40.5060794  67.1561623   6.6589615
  40.7373180  66.1941427   0.9944415  39.9540702  66.7363107   1.0882639
  41.4365925  66.7115406   1.3938656  44.0469830  52.0036056   3.6378620
  44.5438530  51.2506019   3.3179691  43.2756812  52.0400373   3.0721830
  51.8999588  57.7076422   5.2796912  51.8889464  58.5901137   4.9090845
  51.0316967  57.3547973   5.0851449  43.4082084  66.8556491   9.6399752
  44.1210056  67.4903956   9.5675653  42.9172113  66.9520357   8.8239754
  45.1299611  60.7607743   1.2117044  44.1955890  60.8809206   1.0421748
  45.3076279  59.8580210   0.9477054  40.6304799  54.1453439   3.3650305
  40.2602587  53.5924480   4.0531210  41.1263891  53.5411573   2.8125305
  48.5172162  56.6025063   1.7467078  48.9832615  57.4353054   1.6727380
  48.9679663  56.1370044   2.4512336  38.4593998  64.6050934  10.4605323
  39.1603457  65.2387417  10.6134717  37.9889113  64.9465666   9.7000962
  46.5848393  62.9468884  -1.2546770  46.8608237  62.8325479  -0.3452896
  45.7152892  62.5486369  -1.2934597  46.4888825  48.9705650   5.7857979
  45.5751905  49.2009877   5.9540186  46.9181927  49.0544094   6.6372012
  46.2595284  57.1595542   8.2857873  45.6066734  57.4071449   7.6310326
  46.6375663  56.3459680   7.9520350  43.2202457  67.1955235   2.3886043
  43.4024852  66.3776891   2.8513796  44.0435443  67.4122927   1.9510933
  43.5544623  66.1223420  -0.3498908  44.0832389  65.6115875  -0.9628746
  43.8172843  65.8065950   0.5146625  42.3082857  57.9015353  14.7723910
  41.6323494  57.8009482  15.4426285  43.1310490  57.7454566  15.2359907
  34.0561716  64.1387289   7.3936426  34.6415152  63.3930977   7.5264330
  33.8586554  64.4491246   8.2773089  36.9100371  67.1738537   2.4098868
  36.2410746  67.6584664   1.9262908  36.7713241  67.4207757   3.3242246
  28.6479370  56.7092889   6.1140869  28.6863470  56.1756480   6.9077987
  28.1419663  56.1828095   5.4951846  41.0505639  69.2082280   9.0081526
  41.6023948  69.3713902   9.7730611  41.3911833  69.7986718   8.3361551
  36.0270133  51.5557430   9.6103411  36.0911459  52.4172261   9.1980809
  35.9637253  50.9431432   8.8775769  35.5022405  53.6280563  13.2576445
  36.1294444  53.2457640  13.8713970  34.6450324  53.4094764  13.6232138
  45.9016514  64.0343538  14.8630181  46.4456418  64.6473496  14.3685135
  45.3203359  64.5923116  15.3797194  44.1874027  67.1564256   5.9945208
  44.0625166  66.3553996   5.4856154  44.8453118  67.6510449   5.5059178
  35.8082195  53.5112988   5.1722349  35.0868781  54.1248956   5.0329822
  36.5975451  54.0470753   5.0938995  46.2508935  64.9573276   7.6224758
  45.3039271  64.8378627   7.5503085  46.5991708  64.0695774   7.7051020
  38.6108509  50.8467415  11.4463000  39.1342910  51.0929711  12.2089310
  38.3920842  51.6787450  11.0266138  43.2555368  64.7525992   3.8229111
  43.1080331  63.8242699   4.0036681  44.0808862  64.7746083   3.3386186
  37.1217613  53.4044059  -0.3190397  37.4613685  53.9329980  -1.0411789
  37.5689733  53.7424465   0.4568169  46.8589490  65.5754551   4.9093983
  47.7836038  65.3697412   4.7718435  46.6904794  65.3270952   5.8183325
  39.8161054  51.7881110   9.1312671  39.4757874  50.9888923   9.5333351
  39.1100060  52.0882821   8.5589504  40.4677525  48.8730422   7.5839994
  41.2903595  48.3990900   7.4618884  40.7115589  49.6520906   8.0838680
  43.2516883  52.6063830  -1.1838772  43.4680497  53.4888468  -1.4849944
  42.7710950  52.2150043  -1.9133130  37.9916104  55.5649543   5.3931973
  37.8460685  55.8789846   6.2856254  37.5141308  56.1834443   4.8402871
  39.8512487  52.5552091   5.4412862  39.8374056  51.6593184   5.1045160
  40.5684915  52.5622755   6.0751148  41.7038618  52.9889431   7.4865990
  41.4456396  53.9106502   7.4850320  41.1723658  52.5919866   8.1766454
  46.6484806  66.0940218   0.2656075  46.8221684  65.5286641  -0.4870073
  47.1413698  66.8941113   0.0835565  32.4661766  58.1054887   8.3319634
  31.9215234  58.8814695   8.4639908  33.3441116  58.4525692   8.1738755
  39.2549383  51.4366471   0.7100432  39.3765294  50.5083117   0.9091320
  38.9651425  51.4505157  -0.2021252  42.1240573  49.1221382   3.8467152
  42.1462270  49.1860715   2.8919132  42.5408632  48.2825890   4.0407658
  52.5024198  58.8576641   1.8846375  52.9455344  58.1083966   1.4865498
  51.6250708  58.8486777   1.5020107  47.6359979  65.4106983  -2.6347027
  48.3310884  66.0313675  -2.4159712  47.9783129  64.5602334  -2.3594649
  33.2527788  57.2324784  11.2249791  32.5109524  57.3807419  11.8114421
  32.9320532  57.4933049  10.3616540  49.5351402  62.8606688  -1.1059696
  50.0602726  63.1993961  -1.8310376  49.4473755  61.9253703  -1.2896561
  41.1971451  66.7740762  11.0230181  41.5058577  66.5289909  11.8952880
  41.9946933  66.9787400  10.5349051  41.2192063  68.9278671   3.2535557
  40.7797053  68.4355050   3.9468414  41.9700180  68.3851639   3.0127632
  33.6984402  65.1190212   3.2560185  34.5242422  64.8193984   2.8758829
  33.3478454  64.3497835   3.7049974  38.6665935  64.4716680   5.3257859
  38.0445944  63.8087385   5.0260087  39.3370802  64.4977812   4.6431507
  31.8993007  63.0376539   4.2149119  31.0624915  62.6098713   4.0333120
  31.8716652  63.2308982   5.1519910  38.7390462  52.9498468  14.9190365
  38.7878618  53.8260591  14.5368134  39.2812977  52.4075862  14.3462008
  49.2245308  63.4939592  14.1991502  48.4340852  63.4763731  13.6596001
  48.9878663  64.0327885  14.9540539  49.3443183  60.3432058  11.5124230
  49.3941188  60.1782066  12.4539753  49.2357107  59.4759317  11.1222111
  38.2279442  63.0220604  -1.1983681  38.3767562  63.7056068  -1.8517008
  39.0345885  63.0025694  -0.6834225  46.6346946  56.3262986  12.8283537
  47.5356808  56.1869451  12.5367535  46.7094920  56.4917441  13.7681715
  40.9689751  53.7029841  11.6736724  40.0993060  53.9963407  11.4019312
  41.2049231  54.2870286  12.3943987  50.8461380  62.7629000  11.7566252
  50.5546188  63.1258980  12.5929713  50.2333511  62.0496008  11.5779584
  52.0457062  60.3281879   4.2768822  52.8803954  60.7671683   4.4406383
  52.1816191  59.8520533   3.4577068  49.0948568  57.8861614  10.2246310
  49.5702690  58.0789261   9.4165161  48.1714134  57.9420800   9.9789694
  35.9832075  59.0485781  -0.1922612  35.7378117  58.1448111   0.0057598
  36.1527989  59.0502932  -1.1343134  43.6728785  49.9209458   9.1902144
  44.1910729  50.6570485   8.8648632  43.3183918  50.2273451  10.0248903
  43.9241379  46.3409740   4.7103041  44.2043133  45.6732929   5.3363467
  44.7091986  46.5338836   4.1977704  41.7274847  65.5168734  -3.7271933
  41.1548815  66.1358921  -4.1801461  42.3007641  66.0668096  -3.1932011
  47.7950237  54.7627374   8.4574616  48.7467660  54.8625472   8.4786840
  47.6253688  53.9705643   8.9672700  45.8164617  51.8482958   8.6434017
  45.2214549  52.1287970   7.9480505  45.5314313  52.3376858   9.4150758
  44.9472107  65.8005884  -2.5963351  45.8802780  65.7351446  -2.3930475
  44.8595320  66.6362151  -3.0548818  47.5760124  65.1171755  -5.6359403
  47.4973755  64.7831618  -4.7423645  48.3969791  65.6093523  -5.6367931
  50.2738315  57.9833494   7.5716915  50.2414635  57.0449495   7.7576599
  50.8838939  58.0617531   6.8382740  50.4232804  54.7744537   7.6175198
  49.9071852  53.9902994   7.4305127  51.3072752  54.4463254   7.7821718
  48.0843530  48.5185553   3.5771011  47.8868352  48.2100641   4.4614343
  48.6943236  49.2447192   3.7068941  56.0914865  59.0449501   6.7122952
  56.8218253  58.7834789   7.2730655  55.4821810  58.3078223   6.7525020
  54.1730162  57.1857363   7.3097403  53.4463326  57.0513328   6.7013895
  53.7577449  57.4934192   8.1154121  41.9960338  60.9047293  15.0744776
  42.9163348  61.0825892  15.2684823  41.9609922  59.9603339  14.9224476
  31.2142503  56.0985887   3.9998051  30.8945288  55.2451195   3.7072425
  30.6675932  56.3134465   4.7556018  34.9922411  58.8148328   7.7167557
  35.2108421  59.7465436   7.7355591  35.4048185  58.4556302   8.5022361
  41.9126629  49.3216413  -0.2956754  41.1027357  48.9763498   0.0798492
  42.6011046  49.0123957   0.2930857  43.8417177  48.3994460   1.3267542
  44.3948216  48.8189913   1.9857566  44.0787263  47.4730208   1.3690498
  39.8650276  54.3881534  17.1070306  39.7647003  55.3375891  17.0382397
  39.6471818  54.0599772  16.2346376  31.0830763  59.7188798   5.9691173
  30.3894235  59.3042751   5.4561127  31.8303754  59.7609335   5.3724591
  47.2195984  50.5094985   0.8346207  46.6394653  51.1679789   0.4524259
  46.9531917  49.6872330   0.4233624  45.6699551  49.9100043   3.0367527
  46.1699329  50.0216577   2.2281846  46.3135158  49.6061096   3.6768335
  39.7281546  57.8178672  15.9235368  39.2448628  58.6179033  16.1299257
  39.8142485  57.8286617  14.9702812  32.9967506  59.6507052   3.8457187
  32.9738194  59.7494739   2.8939070  33.3068142  60.4972203   4.1674354
  35.6554884  61.7083207   7.9603802  36.6098137  61.6767149   7.8933733
  35.4567407  61.2473831   8.7754028  36.2454266  60.2784323  10.5274599
  37.0647155  60.7728402  10.5509437  36.5191074  59.3616291  10.4992167
  46.0020862  52.6695075  -0.1097445  45.1146717  52.9544726  -0.3277250
  46.4174851  52.5088839  -0.9570168  49.3535398  52.6941596   3.6056894
  50.1295788  53.1838049   3.8781511  48.6283533  53.1199651   4.0628764
  51.7907957  53.4069216   4.6630835  52.3852448  53.1664952   3.9524143
  51.8634541  52.6876346   5.2904371  34.0105113  67.2502827   4.9774000
  33.8759581  66.4903227   4.4111998  33.5937175  67.9743726   4.5102789
  45.1464076  62.4339750  -6.0149425  45.8499926  62.6389753  -5.3991769
  44.4226724  63.0016512  -5.7500342  45.9761886  58.1849611   0.1052845
  45.9197087  58.6418163  -0.7339522  46.5290228  57.4240296  -0.0724312
  49.7866692  53.9739343   0.9302965  49.5303626  53.5735979   1.7611172
  49.1619560  54.6883137   0.8053104  54.0979030  56.7135417   3.4374256
  53.5378588  56.7828606   4.2105818  53.4922533  56.5376401   2.7173752
  37.1674239  68.1472144   5.1892442  37.0506623  69.0917576   5.0871133
  36.3466685  67.8445705   5.5778242  47.0550773  62.8722279  -3.9650965
  47.8896377  62.4403478  -4.1473490  46.8935116  62.7004293  -3.0374071
  46.7096665  59.3754393  -2.5994626  46.6545469  59.2098664  -3.5406182
  46.0842721  60.0830426  -2.4432436  31.4989180  54.6122457  11.2266797
  32.1448044  54.1021411  11.7154022  31.2906331  55.3491139  11.8010222
  44.0242572  61.6803305  16.7258937  44.8933732  61.8543957  16.3645572
  43.5449324  62.4997721  16.6034666  38.1928753  68.8000406   8.4048371
  39.0955999  68.8324016   8.7214866  37.9666123  67.8700856   8.4194707
  39.9482355  67.5531392   5.0658449  38.9977986  67.5533254   4.9522822
  40.2514841  66.8064127   4.5494484  43.8344910  45.4705278   1.2336630
  43.0677306  44.9163765   1.3793312  44.2455615  45.5427147   2.0950781
  35.8386671  51.7590074  15.3241811  36.7018133  51.4026879  15.5345135
  35.2652082  51.4203969  16.0117215  55.6835048  73.3891930   6.1304212
  56.3213458  73.2698678   5.4267552  55.5655891  74.3372774   6.1892164
  52.4924754  73.3419359   6.0665736  52.1543266  73.2260423   5.1786271
  53.3614523  72.9410524   6.0466743  48.3511570  75.1954835   2.0562627
  47.7876435  75.1044772   1.2878915  48.2363965  74.3754739   2.5365120
  52.9744537  74.4954210  12.0251942  52.9633178  74.1007009  11.1532446
  53.1365177  73.7620283  12.6185713  45.8976002  76.6906027   4.8946848
  46.6897294  76.3496851   4.4793147  46.1372652  76.8001002   5.8149001
  47.8566756  75.9514940  -2.2335773  48.6297632  75.4043927  -2.3722898
  48.2092155  76.8159189  -2.0221312  49.6951799  77.2791322  10.9731126
  49.4041665  78.1836953  10.8577792  50.3308783  77.3207850  11.6875196
  50.6208005  74.6568171   7.5632486  51.2171578  74.4324193   6.8489449
  50.6782977  73.9152916   8.1657933  50.1933034  72.1107606  -4.6017323
  50.4458555  71.5889127  -5.3633860  49.2557593  71.9473751  -4.4990640
  55.2376317  71.1143384   3.2057420  56.0239406  70.6962807   2.8547837
  55.5015021  72.0189476   3.3739068  55.4086394  76.5516235  -2.0953923
  54.7732227  76.6250861  -1.3833019  55.0783800  77.1409833  -2.7734844
  60.6384744  71.0518618   4.1090398  61.3709916  70.4817834   4.3428228
  59.8824099  70.6640218   4.5496904  49.9129323  74.0135712  -2.3992948
  49.7965581  73.3380615  -1.7311864  50.0231582  73.5268086  -3.2160795
  52.2560864  73.4745859   1.3053741  51.8919071  72.9476480   2.0166662
  53.1127979  73.0844328   1.1320226  58.1610164  64.7640192   8.5685007
  57.8293489  65.6335603   8.3446222  57.5655778  64.4476476   9.2479037
  51.8966350  68.5035759  -3.6984911  52.0640753  69.3715995  -3.3314440
  51.7063520  68.6663040  -4.6223621  54.6541684  76.9652738   7.9680920
  54.3542407  77.8677776   7.8596727  54.3092743  76.6984921   8.8202073
  48.1054165  73.4166534   4.0017624  47.1804662  73.2842749   4.2095316
  48.3538578  74.1960754   4.4987566  58.0538827  69.4835278   5.6478357
  57.1455705  69.4150686   5.3537118  58.0026423  69.9607223   6.4760182
  51.8755571  70.9593416  -2.7138244  51.7555197  71.4050467  -1.8752764
  51.1808160  71.3078734  -3.2724706  45.4662976  73.0599808   4.8361413
  45.5955357  73.3134287   5.7500825  44.7860427  73.6527516   4.5166068
  49.6362463  83.7297058   0.9351887  49.5586493  84.6804883   1.0140368
  49.0324107  83.3842930   1.5926814  52.1279693  70.9024923  13.5913254
  51.3513027  71.4618844  13.5816119  52.7670256  71.3881706  14.1128124
  59.9200474  67.6851716   7.4256231  59.2774854  67.9784249   6.7796025
  59.4155402  67.5704637   8.2309428  57.5740638  71.4314889  -1.8857910
  58.4858494  71.6642276  -2.0610212  57.0650285  72.0151934  -2.4482831
  50.3826066  73.7110377  13.1531221  51.1240750  74.2495421  12.8766045
  49.6763051  74.3376665  13.3102773  55.8581405  75.8539517  11.7503383
  56.2664761  75.4121928  11.0058015  55.1358667  75.2792145  12.0037576
  52.2112475  70.7912124   9.1236940  53.0573670  71.2151538   9.2671589
  52.1511113  70.1345748   9.8175503  56.1810220  76.4140708   5.5055672
  55.5519082  76.5786422   4.8031739  55.7935882  76.8282317   6.2766636
  60.0599452  77.3495146   2.8600035  59.3750490  77.7294047   2.3097069
  60.1443301  77.9590472   3.5931983  55.3611921  68.4516492  10.7818113
  55.1172852  69.2058553  10.2452389  55.6371851  68.8301840  11.6165360
  57.3150383  74.9955105   9.4595379  57.5267279  75.6386865   8.7829760
  57.2680132  74.1617421   8.9917309  54.9176612  67.6072925   6.3631951
  54.0561091  67.9054179   6.6548689  54.9439047  67.8243324   5.4312984
  51.7338182  76.1515116   2.7705757  52.1976527  76.4302819   1.9810379
  51.4694980  75.2498560   2.5878847  48.6262263  75.6986597   5.7085520
  49.1963620  76.1273866   5.0703004  49.2170375  75.4169182   6.4069706
  50.6707068  72.2738268  -0.4204678  51.3731111  72.7259312   0.0469248
  50.3387696  71.6322087   0.2075215  49.1187429  70.8650025  13.9546531
  48.4886090  71.5466306  14.1881928  49.0123517  70.7533107  13.0099670
  44.4132402  70.5321821   4.8812455  43.6231456  70.7879349   4.4052566
  44.9043649  71.3470159   4.9864496  58.4296211  77.8727060   7.6317736
  59.2513655  77.4707247   7.3500418  58.4258614  77.7695294   8.5833852
  46.3647147  70.8966400   1.8395932  45.5678310  71.0085094   2.3579428
  46.1372739  71.2353052   0.9736823  52.1952815  77.4211103   9.7878447
  52.2597247  77.8831511  10.6236619  51.4863739  76.7908468   9.9160757
  42.6970105  70.7852311   7.3127446  42.9478143  71.6699321   7.5785022
  43.2329653  70.6056913   6.5402538  66.5202204  74.2165809   3.9802708
  65.7665913  73.6473207   3.8246712  66.6549746  74.1828473   4.9273342
  51.9100832  79.0879211  -0.3442573  51.7746507  79.9330747   0.0842275
  52.4510645  79.2898489  -1.1076639  48.3968172  65.1670791  16.3171782
  48.0035118  64.6136989  16.9919427  49.2134312  65.4781369  16.7078300
  45.3630230  76.6054649   0.2285352  45.8754750  77.3997899   0.3790917
  46.0152943  75.9080939   0.1618954  47.1725114  79.7220405   2.3108105
  47.3491743  80.6438370   2.1229089  47.9681948  79.4078824   2.7402485
  51.3136133  66.5828670  13.9092039  52.0545846  67.1835823  13.8296501
  51.5454056  65.8406308  13.3510081  46.4577471  71.7685037  12.1870269
  46.3430986  70.8670294  12.4877367  45.6021989  72.0148734  11.8355085
  53.5369309  79.7102777  13.7857769  53.0933163  78.9239156  13.4678674
  54.1986522  79.8981928  13.1201660  48.2956430  81.2398579   8.3118448
  48.8463855  81.1115642   7.5395442  47.4567906  81.5393468   7.9613340
  55.6350547  79.9905577  11.8139170  55.6169022  80.8114458  11.3219440
  56.5570467  79.8659653  12.0389312  52.0923601  77.5049707  12.6562679
  52.6251938  76.7437995  12.4261987  51.5637682  77.2123359  13.3986833
  55.2593296  62.6109773   8.1856321  54.9157565  63.5011414   8.1095431
  55.6272259  62.4211430   7.3225906  43.3279147  74.9343303   1.0044923
  44.1654369  75.3440312   0.7878630  43.5057414  73.9942745   0.9745117
  55.2243579  72.6018384  -3.3071244  54.7090202  73.3722989  -3.0682857
  54.9520887  71.9283520  -2.6838183  52.8090690  67.4468085   1.7513994
  51.9532286  67.0574935   1.5719633  53.2217641  67.5260045   0.8913780
  54.3389836  64.9814428   6.1505554  53.8354632  64.9444563   5.3373359
  54.6320443  65.8907171   6.2102210  50.5832722  65.0653158   5.1571736
  51.4485719  64.8695966   4.7977625  50.6510231  64.8363509   6.0841092
  55.0129882  70.4745476  -1.4811463  54.7080017  70.7891625  -0.6301320
  55.9660324  70.5526896  -1.4384130  53.4576314  76.6335699   0.1681491
  52.9297675  75.8988459  -0.1445272  52.9563816  77.4110376  -0.0778541
  58.4369160  74.8284720   5.2848537  57.7792834  75.5183981   5.3728666
  59.2409559  75.2181152   5.6282523  48.1895041  67.2955366   2.5288102
  48.7638793  67.0730547   1.7961295  48.7766024  67.3644060   3.2816704
  57.2474619  73.1829092   3.3352479  57.7606500  73.8159084   3.8374189
  57.8975842  72.5830288   2.9695839  48.5164628  69.3259827  -3.4516012
  47.6801941  69.6634513  -3.1306738  48.3769398  69.1908806  -4.3888875
  50.4917709  64.1696614   1.2563172  49.8382121  63.8545632   0.6319787
  50.4498183  63.5472355   1.9822995  53.7255449  70.6578548   5.5810819
  52.8078011  70.8793495   5.4232507  54.1415593  70.7324859   4.7222527
  54.5090497  72.0569964   0.7113500  55.2562316  72.5691361   0.4020622
  54.7782087  71.7354016   1.5717893  52.7817147  74.5528504  -2.3059546
  51.8728367  74.2687537  -2.2087076  52.8112231  74.9727583  -3.1656239
  58.0136415  78.1635094   1.4631622  57.5598742  77.3226004   1.5196812
  57.3830381  78.7996492   1.8006402  56.9569334  69.0927080   2.6932289
  56.2192091  68.5804466   3.0242532  57.2096108  68.6527462   1.8815566
  56.4569354  80.0011591   2.3981440  56.7492328  80.5616648   1.6793805
  56.9667975  80.2940152   3.1534599  57.0580962  61.8703332   3.2874058
  57.3639838  61.0100695   2.9999973  57.7833566  62.4620952   3.0873052
  43.3505318  72.2734019   1.6755656  43.1529718  71.6803379   0.9506723
  42.7951982  71.9686229   2.3931595  51.3302041  72.1657125   3.7950249
  51.3850651  71.2130961   3.7192726  50.5193243  72.3216564   4.2791548
  49.2694401  70.7834185   1.5540628  48.4562267  71.0828355   1.9605820
  49.7653395  70.3889874   2.2715110  51.4202979  80.7791942   3.4874893
  51.3779158  81.0052788   2.5583425  52.3365678  80.5455316   3.6360694
  54.8668613  71.2476009  10.3855522  55.2218001  71.4747482  11.2449988
  55.5140744  71.5794386   9.7632777  60.5966350  74.3694445   1.0904851
  60.4584248  74.5596041   0.1626040  60.2402569  75.1313828   1.5472902
  48.7608476  68.3552540   7.1701863  49.4007855  68.2141299   6.4724826
  47.9286007  68.0687054   6.7940465  60.6235729  76.4370972   6.1016123
  61.0572236  76.3446261   6.9499177  61.3367310  76.4128473   5.4636139
  49.5368780  77.6554971   3.2836856  50.3309378  77.1605291   3.0819431
  48.8260472  77.1272834   2.9204561  54.3563624  80.0373066   7.6349223
  54.4100647  80.6064003   8.4026939  53.4878406  80.2074951   7.2703260
  45.8451543  71.7998052  -0.6403392  44.9149131  71.7382508  -0.4233430
  45.9409015  71.2774005  -1.4366750  45.7637092  68.3252865   1.9474850
  46.0243910  69.2398199   1.8384010  46.5854265  67.8577308   2.0971463
  47.2362018  69.7390622   9.1173674  47.9085071  69.5307985   8.4686323
  46.4091804  69.5412708   8.6778907  61.4851279  76.4794673   8.6349008
  61.6787169  77.3840483   8.8808283  61.3851897  76.0202092   9.4687593
  53.1387590  66.3652563  11.1339335  52.4915505  67.0642513  11.0403812
  53.9088605  66.7988707  11.5015584  56.5466388  76.6301416  14.2089889
  56.3951894  76.4011967  13.2919972  56.5371067  77.5872017  14.2221234
  53.3151724  74.2033328   9.1936155  54.2443784  74.3544488   9.0205122
  52.8942754  74.2917349   8.3384802  52.1140056  78.2283993   6.9634693
  51.9751142  77.8602777   7.8360631  51.3254652  78.7431632   6.7918650
  53.6645271  77.6065595   4.3523530  53.3295104  77.5666365   5.2481180
  53.1649217  76.9410311   3.8793941  47.6389515  73.0133225   9.8776112
  47.5009313  72.2813464  10.4787651  48.5494439  72.9242126   9.5960299
  50.2671816  72.7253185   9.3659791  50.9771434  72.0846377   9.3246410
  50.2241124  72.9766080  10.2885972  58.2558594  79.6620538  12.2866370
  58.1971141  78.9779758  11.6196953  58.6578113  80.4039528  11.8346996
  48.9800750  69.7118403  11.1855431  48.4438107  69.2609141  11.8377027
  48.3917458  69.8464311  10.4425895  47.2749293  86.4782452   5.0800089
  47.5145891  87.1100976   5.7579108  46.4318490  86.1270492   5.3665449
  48.3903009  69.1707054  -6.2518106  47.5132475  69.0495855  -6.6155859
  48.8660762  68.3793132  -6.5039217  58.2576002  77.6260122  10.5180350
  57.3702780  77.2886044  10.6406749  58.8274553  76.8943153  10.7549116
  39.9105149  73.9584214   3.8423402  40.5976189  73.6445944   3.2544417
  39.7553277  74.8625578   3.5690653  44.7139871  68.8474410   8.2708425
  44.6298060  68.2400080   7.5358835  43.8922577  69.3383429   8.2717922
  51.7877155  82.2861574   7.4841593  51.7147327  83.0916546   7.9960898
  51.3454548  82.4853540   6.6589615  51.5766935  81.5233344   0.9944415
  50.7934457  82.0655025   1.0882639  52.2759680  82.0407324   1.3938656
  54.8863585  67.3327974   3.6378620  55.3832284  66.5797936   3.3179691
  54.1150566  67.3692291   3.0721830  62.7393342  73.0368339   5.2796912
  62.7283218  73.9193055   4.9090845  61.8710722  72.6839890   5.0851449
  54.2475839  82.1848408   9.6399752  54.9603811  82.8195873   9.5675653
  53.7565867  82.2812274   8.8239754  55.9693365  76.0899661   1.2117044
  55.0349644  76.2101124   1.0421748  56.1470034  75.1872128   0.9477054
  51.4698554  69.4745357   3.3650305  51.0996341  68.9216397   4.0531210
  51.9657646  68.8703490   2.8125305  59.3565917  71.9316980   1.7467078
  59.8226369  72.7644972   1.6727380  59.8073417  71.4661962   2.4512336
  49.2987752  79.9342852  10.4605323  49.9997212  80.5679335  10.6134717
  48.8282867  80.2757583   9.7000962  57.4242148  78.2760802  -1.2546770
  57.7001992  78.1617396  -0.3452896  56.5546647  77.8778287  -1.2934597
  57.3282580  64.2997567   5.7857979  56.4145659  64.5301794   5.9540186
  57.7575681  64.3836011   6.6372012  57.0989038  72.4887459   8.2857873
  56.4460488  72.7363367   7.6310326  57.4769418  71.6751598   7.9520350
  54.0596212  82.5247153   2.3886043  54.2418606  81.7068808   2.8513796
  54.8829198  82.7414845   1.9510933  54.3938377  81.4515338  -0.3498908
  54.9226144  80.9407792  -0.9628746  54.6566597  81.1357868   0.5146625
  53.1476611  73.2307270  14.7723910  52.4717248  73.1301400  15.4426285
  53.9704245  73.0746484  15.2359907  44.8955470  79.4679207   7.3936426
  45.4808907  78.7222895   7.5264330  44.6980309  79.7783164   8.2773089
  47.7494125  82.5030454   2.4098868  47.0804501  82.9876582   1.9262908
  47.6106995  82.7499675   3.3242246  39.4873125  72.0384807   6.1140869
  39.5257224  71.5048398   6.9077987  38.9813418  71.5120013   5.4951846
  51.8899394  84.5374198   9.0081526  52.4417702  84.7005819   9.7730611
  52.2305587  85.1278636   8.3361551  46.8663887  66.8849348   9.6103411
  46.9305214  67.7464179   9.1980809  46.8031007  66.2723349   8.8775769
  46.3416160  68.9572480  13.2576445  46.9688199  68.5749558  13.8713970
  45.4844079  68.7386682  13.6232138  56.7410268  79.3635455  14.8630181
  57.2850172  79.9765414  14.3685135  56.1597113  79.9215034  15.3797194
  43.1181702  70.7648909  -0.8105200  43.4135144  69.8559588  -0.8638146
  42.2169738  70.7436649  -1.1324198  55.0267781  82.4856173   5.9945208
  54.9018921  81.6845913   5.4856154  55.6846872  82.9802367   5.5059178
  46.6475949  68.8404906   5.1722349  45.9262535  69.4540874   5.0329822
  47.4369205  69.3762671   5.0938995  57.0902690  80.2865193   7.6224758
  56.1433025  80.1670545   7.5503085  57.4385463  79.3987691   7.7051020
  49.4502263  66.1759332  11.4463000  49.9736665  66.4221629  12.2089310
  49.2314596  67.0079367  11.0266138  44.8469544  68.4463007  -0.6865875
  44.5182250  67.5660386  -0.8690769  45.2008915  68.3910676   0.2010514
  54.0949123  80.0817910   3.8229111  53.9474085  79.1534617   4.0036681
  54.9202616  80.1038000   3.3386186  47.9611367  68.7335977  -0.3190397
  48.3007440  69.2621898  -1.0411789  48.4083488  69.0716383   0.4568169
  57.6983245  80.9046468   4.9093983  58.6229792  80.6989330   4.7718435
  57.5298548  80.6562870   5.8183325  50.6554808  67.1173027   9.1312671
  50.3151628  66.3180841   9.5333351  49.9493814  67.4174738   8.5589504
  51.3071280  64.2022340   7.5839994  52.1297349  63.7282818   7.4618884
  51.5509343  64.9812824   8.0838680  49.9479514  67.2310598  -2.1197104
  50.6687877  67.6091851  -2.6233388  49.3244818  67.9499475  -2.0162126
  54.0910637  67.9355747  -1.1838772  54.3074252  68.8180385  -1.4849944
  53.6104704  67.5441961  -1.9133130  48.8309859  70.8941461   5.3931973
  48.6854439  71.2081764   6.2856254  48.3535062  71.5126361   4.8402871
  50.6906242  67.8844009   5.4412862  50.6767810  66.9885102   5.1045160
  51.4078670  67.8914672   6.0751148  52.5432372  68.3181349   7.4865990
  52.2850150  69.2398419   7.4850320  52.0117413  67.9211783   8.1766454
  43.3055521  73.4346805   8.3319634  42.7608989  74.2106613   8.4639908
  44.1834871  73.7817609   8.1738755  50.0943137  66.7658389   0.7100432
  50.2159049  65.8375035   0.9091320  49.8045180  66.7797075  -0.2021252
  52.9634328  64.4513299   3.8467152  52.9856025  64.5152632   2.8919132
  53.3802387  63.6117808   4.0407658  63.3417952  74.1868559   1.8846375
  63.7849098  73.4375884   1.4865498  62.4644462  74.1778695   1.5020107
  44.0921543  72.5616701  11.2249791  43.3503279  72.7099337  11.8114421
  43.7714287  72.8224967  10.3616540  52.0365205  82.1032679  11.0230181
  52.3452332  81.8581826  11.8952880  52.8340687  82.3079318  10.5349051
  52.0585817  84.2570589   3.2535557  51.6190808  83.7646968   3.9468414
  52.8093934  83.7143557   3.0127632  44.5378156  80.4482130   3.2560185
  45.3636176  80.1485902   2.8758829  44.1872208  79.6789752   3.7049974
  49.5059689  79.8008598   5.3257859  48.8839699  79.1379303   5.0260087
  50.1764556  79.8269730   4.6431507  42.7386761  78.3668456   4.2149119
  41.9018670  77.9390631   4.0333120  42.7110407  78.5600900   5.1519910
  49.5784217  68.2790386  14.9190365  49.6272372  69.1552509  14.5368134
  50.1206731  67.7367779  14.3462008  60.0639063  78.8231509  14.1991502
  59.2734606  78.8055648  13.6596001  59.8272417  79.3619803  14.9540539
  60.1836938  75.6723976  11.5124230  60.2334943  75.5073983  12.4539753
  60.0750861  74.8051235  11.1222111  49.0673196  78.3512521  -1.1983681
  49.2161317  79.0347986  -1.8517008  49.8739640  78.3317612  -0.6834225
  57.4740700  71.6554904  12.8283537  58.3750563  71.5161369  12.5367535
  57.5488675  71.8209359  13.7681715  51.8083505  69.0321759  11.6736724
  50.9386815  69.3255325  11.4019312  52.0442986  69.6162204  12.3943987
  61.6855135  78.0920917  11.7566252  61.3939943  78.4550898  12.5929713
  61.0727266  77.3787926  11.5779584  62.8850817  75.6573797   4.2768822
  63.7197708  76.0963601   4.4406383  63.0209946  75.1812450   3.4577068
  59.9342323  73.2153532  10.2246310  60.4096444  73.4081178   9.4165161
  59.0107888  73.2712718   9.9789694  46.8225829  74.3777699  -0.1922612
  46.5771871  73.4740029   0.0057598  46.9921744  74.3794850  -1.1343134
  54.5122539  65.2501376   9.1902144  55.0304483  65.9862402   8.8648632
  54.1577672  65.5565369  10.0248903  46.0921477  70.1106057  -2.6936450
  45.3990722  70.1850412  -3.3496414  45.8473229  69.3466400  -2.1714933
  54.7635133  61.6701658   4.7103041  55.0436887  61.0024847   5.3363467
  55.5485740  61.8630754   4.1977704  58.6343992  70.0919292   8.4574616
  59.5861415  70.1917390   8.4786840  58.4647442  69.2997561   8.9672700
  56.6558371  67.1774875   8.6434017  56.0608303  67.4579888   7.9480505
  56.3708068  67.6668776   9.4150758  61.1132070  73.3125412   7.5716915
  61.0808390  72.3741412   7.7576599  61.7232693  73.3909448   6.8382740
  52.9515400  72.1821465  -6.3855881  53.8974505  72.0527673  -6.3167463
  52.5729645  71.4436127  -5.9086453  61.2626558  70.1036455   7.6175198
  60.7465607  69.3194912   7.4305127  62.1466507  69.7755172   7.7821718
  58.9237285  63.8477471   3.5771011  58.7262106  63.5392559   4.4614343
  59.5336991  64.5739110   3.7068941  66.9308619  74.3741419   6.7122952
  67.6612008  74.1126707   7.2730655  66.3215565  73.6370141   6.7525020
  65.0123917  72.5149281   7.3097403  64.2857080  72.3805246   6.7013895
  64.5971203  72.8226110   8.1154121  52.8354093  76.2339211  15.0744776
  53.7557102  76.4117810  15.2684823  52.8003676  75.2895256  14.9224476
  51.1358318  70.1071441  -6.4500995  50.2289773  69.8104554  -6.3738282
  51.4134299  69.8101259  -7.3166709  42.0536258  71.4277804   3.9998051
  41.7339042  70.5743113   3.7072425  41.5069686  71.6426383   4.7556018
  45.8316166  74.1440245   7.7167557  46.0502175  75.0757353   7.7355591
  46.2441939  73.7848220   8.5022361  52.7520383  64.6508331  -0.2956754
  51.9421112  64.3055416   0.0798492  53.4404800  64.3415875   0.2930857
  54.6810932  63.7286378   1.3267542  55.2341970  64.1481831   1.9857566
  54.9181018  62.8022126   1.3690498  50.7044031  69.7173451  17.1070306
  50.6040758  70.6667808  17.0382397  50.4865573  69.3891690  16.2346376
  49.9057102  66.9658376  -6.3089016  50.7676266  67.2913275  -6.0493199
  50.0907446  66.1789872  -6.8215950  41.9224518  75.0480716   5.9691173
  41.2287989  74.6334669   5.4561127  42.6697509  75.0901252   5.3724591
  58.0589739  65.8386903   0.8346207  57.4788408  66.4971707   0.4524259
  57.7925671  65.0164247   0.4233624  56.5093305  65.2391960   3.0367527
  57.0093083  65.3508495   2.2281846  57.1528913  64.9353013   3.6768335
  50.5675301  73.1470590  15.9235368  50.0842383  73.9470950  16.1299257
  50.6536240  73.1578535  14.9702812  43.8361260  74.9798970   3.8457187
  43.8131949  75.0786657   2.8939070  44.1461897  75.8264121   4.1674354
  46.4948638  77.0375125   7.9603802  47.4491892  77.0059067   7.8933733
  46.2961162  76.5765749   8.7754028  47.0848020  75.6076241  10.5274599
  47.9040909  76.1020320  10.5509437  47.3584828  74.6908209  10.4992167
  56.8414617  67.9986993  -0.1097445  55.9540472  68.2836644  -0.3277250
  57.2568606  67.8380757  -0.9570168  60.1929153  68.0233514   3.6056894
  60.9689543  68.5129967   3.8781511  59.4677287  68.4491568   4.0628764
  62.6301711  68.7361133   4.6630835  63.2246202  68.4956869   3.9524143
  62.7028295  68.0168264   5.2904371  44.8498867  82.5794744   4.9774000
  44.7153335  81.8195145   4.4111998  44.4330929  83.3035644   4.5102789
  56.8155640  73.5141529   0.1052845  56.7590842  73.9710081  -0.7339522
  57.3683983  72.7532214  -0.0724312  60.6260446  69.3031261   0.9302965
  60.3697381  68.9027897   1.7611172  60.0013314  70.0175055   0.8053104
  64.9372784  72.0427334   3.4374256  64.3772342  72.1120524   4.2105818
  64.3316288  71.8668319   2.7173752  48.0067993  83.4764061   5.1892442
  47.8900377  84.4209494   5.0871133  47.1860439  83.1737623   5.5778242
  57.5490420  74.7046310  -2.5994626  57.4939224  74.5390582  -3.5406182
  56.9236475  75.4122343  -2.4432436  42.3382935  69.9414375  11.2266797
  42.9841798  69.4313329  11.7154022  42.1300086  70.6783056  11.8010222
  54.8636327  77.0095222  16.7258937  55.7327487  77.1835874  16.3645572
  54.3843078  77.8289639  16.6034666  50.8586545  64.2054419  -3.0209307
  50.8465215  65.1496259  -2.8641036  51.7509967  64.0224565  -3.3149846
  49.0322507  84.1292323   8.4048371  49.9349754  84.1615933   8.7214866
  48.8059877  83.1992774   8.4194707  50.7876109  82.8823310   5.0658449
  49.8371740  82.8825171   4.9522822  51.0908595  82.1356044   4.5494484
  54.6738665  60.7997196   1.2336630  53.9071060  60.2455683   1.3793312
  55.0849370  60.8719065   2.0950781  46.6780426  67.0881992  15.3241811
  47.5411887  66.7318797  15.5345135  46.1045836  66.7495887  16.0117215
  63.8138292  89.8246128  12.0251942  63.8026933  89.4298926  11.1532446
  63.9758931  89.0912201  12.6185713  60.5345553  92.6083240  10.9731126
  60.2435419  93.5128871  10.8577792  61.1702537  92.6499767  11.6875196
  69.0003919  80.0932109   8.5685007  68.6687243  80.9627520   8.3446222
  68.4049532  79.7768393   9.2479037  56.3056731  88.3891726   4.8361413
  56.4349112  88.6426205   5.7500825  55.6254182  88.9819434   4.5166068
  62.9673448  86.2316841  13.5913254  62.1906782  86.7910761  13.5816119
  63.6064011  86.7173624  14.1128124  70.7594228  83.0143634   7.4256231
  70.1168609  83.3076167   6.7796025  70.2549157  82.8996554   8.2309428
  61.2219820  89.0402294  13.1531221  61.9634504  89.5787338  12.8766045
  60.5156806  89.6668583  13.3102773  66.6975160  91.1831435  11.7503383
  67.1058516  90.7413845  11.0058015  65.9752421  90.6084062  12.0037576
  63.0506230  86.1204042   9.1236940  63.8967425  86.5443455   9.2671589
  62.9904867  85.4637666   9.8175503  66.2005675  83.7808410  10.7818113
  65.9566607  84.5350471  10.2452389  66.4765606  84.1593758  11.6165360
  65.7570367  82.9364843   6.3631951  64.8954846  83.2346097   6.6548689
  65.7832801  83.1535242   5.4312984  59.9581184  86.1941943  13.9546531
  59.3279844  86.8758223  14.1881928  59.8517272  86.0825024  13.0099670
  55.2526156  85.8613739   4.8812455  54.4625210  86.1171267   4.4052566
  55.7437404  86.6762076   4.9864496  63.0346569  92.7503021   9.7878447
  63.0991002  93.2123428  10.6236619  62.3257493  92.1200386   9.9160757
  53.5363859  86.1144229   7.3127446  53.7871898  86.9991239   7.5785022
  54.0723408  85.9348831   6.5402538  59.2361927  80.4962708  16.3171782
  58.8428872  79.9428907  16.9919427  60.0528067  80.8073287  16.7078300
  62.1529888  81.9120588  13.9092039  62.8939601  82.5127741  13.8296501
  62.3847810  81.1698225  13.3510081  57.2971226  87.0976955  12.1870269
  57.1824741  86.1962212  12.4877367  56.4415743  87.3440652  11.8355085
  64.3763063  95.0394695  13.7857769  63.9326917  94.2531074  13.4678674
  65.0380277  95.2273846  13.1201660  62.9317355  92.8341625  12.6562679
  63.4645692  92.0729913  12.4261987  62.4031437  92.5415276  13.3986833
  66.0987050  77.9401690   8.1856321  65.7551320  78.8303332   8.1095431
  66.4666013  77.7503348   7.3225906  65.1783591  80.3106346   6.1505554
  64.6748386  80.2736481   5.3373359  65.4714198  81.2199088   6.2102210
  61.4226477  80.3945075   5.1571736  62.2879473  80.1987884   4.7977625
  61.4903986  80.1655427   6.0841092  59.0288796  82.6247283   2.5288102
  59.6032548  82.4022465   1.7961295  59.6159778  82.6935978   3.2816704
  61.3311464  79.4988532   1.2563172  60.6775876  79.1837549   0.6319787
  61.2891938  78.8764273   1.9822995  67.8974716  77.1995250   3.2874058
  68.2033593  76.3392613   2.9999973  68.6227321  77.7912870   3.0873052
  65.7062367  86.5767927  10.3855522  66.0611755  86.8039400  11.2449988
  66.3534499  86.9086304   9.7632777  59.6002231  83.6844458   7.1701863
  60.2401610  83.5433217   6.4724826  58.7679761  83.3978971   6.7940465
  56.6030847  83.6544783   1.9474850  56.8637664  84.5690116   1.8384010
  57.4248019  83.1869226   2.0971463  58.0755772  85.0682540   9.1173674
  58.7478826  84.8599902   8.4686323  57.2485559  84.8704626   8.6778907
  63.9781344  81.6944481  11.1339335  63.3309259  82.3934431  11.0403812
  64.7482360  82.1280625  11.5015584  67.3860142  91.9593333  14.2089889
  67.2345649  91.7303885  13.2919972  67.3764822  92.9163935  14.2221234
  64.1545479  89.5325246   9.1936155  65.0837539  89.6836406   9.0205122
  63.7336509  89.6209267   8.3384802  58.4783270  88.3425143   9.8776112
  58.3403067  87.6105382  10.4787651  59.3888193  88.2534043   9.5960299
  61.1065570  88.0545102   9.3659791  61.8165189  87.4138295   9.3246410
  61.0634878  88.3057997  10.2885972  59.8194504  85.0410320  11.1855431
  59.2831861  84.5901059  11.8377027  59.2311213  85.1756229  10.4425895
  50.7498903  89.2876131   3.8423402  51.4369943  88.9737861   3.2544417
  50.5947032  90.1917496   3.5690653  55.5533625  84.1766328   8.2708425
  55.4691814  83.5691998   7.5358835  54.7316332  84.6675346   8.2717922
  60.1381507  95.2634770  10.4605323  60.8390966  95.8971253  10.6134717
  59.6676622  95.6049501   9.7000962  68.1676334  79.6289485   5.7857979
  67.2539414  79.8593712   5.9540186  68.5969436  79.7127929   6.6372012
  63.9870366  88.5599188  14.7723910  63.3111003  88.4593317  15.4426285
  64.8097999  88.4038402  15.2359907  55.7349225  94.7971125   7.3936426
  56.3202661  94.0514813   7.5264330  55.5374063  95.1075081   8.2773089
  50.3266879  87.3676725   6.1140869  50.3650979  86.8340316   6.9077987
  49.8207172  86.8411930   5.4951846  57.7057642  82.2141265   9.6103411
  57.7698968  83.0756096   9.1980809  57.6424762  81.6015267   8.8775769
  57.1809914  84.2864398  13.2576445  57.8081953  83.9041475  13.8713970
  56.3237833  84.0678600  13.6232138  67.5804023  94.6927373  14.8630181
  68.1243927  95.3057331  14.3685135  66.9990868  95.2506951  15.3797194
  57.4869704  84.1696824   5.1722349  56.7656290  84.7832791   5.0329822
  58.2762960  84.7054588   5.0938995  60.2896017  81.5051250  11.4463000
  60.8130419  81.7513547  12.2089310  60.0708351  82.3371285  11.0266138
  61.4948563  82.4464945   9.1312671  61.1545383  81.6472758   9.5333351
  60.7887569  82.7466656   8.5589504  62.1465034  79.5314258   7.5839994
  62.9691104  79.0574736   7.4618884  62.3903098  80.3104741   8.0838680
  59.6703613  86.2233378   5.3931973  59.5248194  86.5373681   6.2856254
  59.1928817  86.8418279   4.8402871  61.5299996  83.2135926   5.4412862
  61.5161565  82.3177020   5.1045160  62.2472424  83.2206590   6.0751148
  63.3826127  83.6473266   7.4865990  63.1243905  84.5690337   7.4850320
  62.8511167  83.2503701   8.1766454  54.1449275  88.7638723   8.3319634
  53.6002743  89.5398531   8.4639908  55.0228625  89.1109527   8.1738755
  63.8028082  79.7805217   3.8467152  63.8249779  79.8444550   2.8919132
  64.2196141  78.9409726   4.0407658  54.9315297  87.8908619  11.2249791
  54.1897033  88.0391254  11.8114421  54.6108041  88.1516884  10.3616540
  60.4177971  83.6082304  14.9190365  60.4666127  84.4844427  14.5368134
  60.9600486  83.0659697  14.3462008  70.9032817  94.1523427  14.1991502
  70.1128361  94.1347566  13.6596001  70.6666172  94.6911721  14.9540539
  71.0230692  91.0015893  11.5124230  71.0728697  90.8365901  12.4539753
  70.9144616  90.1343152  11.1222111  68.3134455  86.9846821  12.8283537
  69.2144317  86.8453286  12.5367535  68.3882429  87.1501276  13.7681715
  62.6477260  84.3613676  11.6736724  61.7780569  84.6547242  11.4019312
  62.8836740  84.9454121  12.3943987  65.3516294  80.5793293   9.1902144
  65.8698238  81.3154320   8.8648632  64.9971427  80.8857286  10.0248903
  65.6028888  76.9993576   4.7103041  65.8830642  76.3316765   5.3363467
  66.3879495  77.1922671   4.1977704  69.4737746  85.4211210   8.4574616
  70.4255169  85.5209307   8.4786840  69.3041197  84.6289478   8.9672700
  67.4952126  82.5066793   8.6434017  66.9002058  82.7871806   7.9480505
  67.2101822  82.9960694   9.4150758  63.6747847  91.5631128  15.0744776
  64.5950857  91.7409728  15.2684823  63.6397430  90.6187174  14.9224476
  52.8930012  86.7569722   3.9998051  52.5732797  85.9035030   3.7072425
  52.3463441  86.9718300   4.7556018  56.6709920  89.4732163   7.7167557
  56.8895930  90.4049271   7.7355591  57.0835694  89.1140138   8.5022361
  61.5437785  85.0465369  17.1070306  61.4434512  85.9959726  17.0382397
  61.3259327  84.7183608  16.2346376  52.7618272  90.3772634   5.9691173
  52.0681744  89.9626586   5.4561127  53.5091263  90.4193170   5.3724591
  61.4069055  88.4762508  15.9235368  60.9236137  89.2762868  16.1299257
  61.4929994  88.4870453  14.9702812  57.3342393  92.3667042   7.9603802
  58.2885646  92.3350985   7.8933733  57.1354916  91.9057666   8.7754028
  57.9241775  90.9368159  10.5274599  58.7434664  91.4312237  10.5509437
  58.1978583  90.0200127  10.4992167  53.1776689  85.2706292  11.2266797
  53.8235553  84.7605246  11.7154022  52.9693840  86.0074974  11.8010222
  65.7030081  92.3387140  16.7258937  66.5721241  92.5127792  16.3645572
  65.2236833  93.1581557  16.6034666  65.5132419  76.1289114   1.2336630
  64.7464815  75.5747600   1.3793312  65.9243124  76.2010982   2.0950781
  57.5174180  82.4173909  15.3241811  58.3805642  82.0610714  15.5345135
  56.9439591  82.0787804  16.0117215  70.0755681  95.8254626  16.3171782
  69.6822627  95.2720825  16.9919427  70.8921821  96.1365205  16.7078300
  68.3567935  97.7465827  15.3241811  69.2199396  97.3902632  15.5345135
  67.7833345  97.4079722  16.0117215  52.9744539  51.5016333  -1.2502751
  52.9633179  51.1069131  -2.1222248  53.1365178  50.7682405  -0.6568980
  49.6951800  54.2853445  -2.3023567  49.4041666  55.1899076  -2.4176901
  50.3308784  54.3269972  -1.5879498  54.6541685  53.9714860  -5.3073774
  54.3542408  54.8739899  -5.4157966  54.3092744  53.7047043  -4.4552621
  52.1279694  47.9087046   0.3158561  51.3513029  48.4680966   0.3061426
  52.7670258  48.3943829   0.8373431  50.3826067  50.7172499  -0.1223472
  51.1240751  51.2557543  -0.3988648  49.6763052  51.3438788   0.0348080
  55.8581406  52.8601640  -1.5251311  56.2664762  52.4184050  -2.2696678
  55.1358668  52.2854267  -1.2717118  52.2112476  47.7974247  -4.1517754
  53.0573672  48.2213660  -4.0083105  52.1511114  47.1407871  -3.4579191
  56.1810221  53.4202830  -7.7699022  55.5519084  53.5848545  -8.4722954
  55.7935883  53.8344440  -6.9988058  60.0599453  54.3557268 -10.4154658
  59.3750491  54.7356170 -10.9657625  60.1443302  54.9652595  -9.6822710
  55.3611922  45.4578615  -2.4936580  55.1172854  46.2120675  -3.0302304
  55.6371852  45.8363963  -1.6589333  57.3150385  52.0017227  -3.8159314
  57.5267280  52.6448987  -4.4924933  57.2680133  51.1679544  -4.2837384
  49.1187431  47.8712148   0.6791838  48.4886091  48.5528428   0.9127235
  49.0123518  47.7595229  -0.2655024  58.4296213  54.8789183  -5.6436957
  59.2513656  54.4769370  -5.9254275  58.4258615  54.7757417  -4.6920841
  52.1952816  54.4273226  -3.4876247  52.2597248  54.8893633  -2.6518075
  51.4863740  53.7970591  -3.3593937  66.5202206  51.2227931  -9.2951986
  65.7665914  50.6535329  -9.4507981  66.6549747  51.1890596  -8.3481351
  48.3968173  42.1732913   3.0417089  48.0035119  41.6199112   3.7164733
  49.2134314  42.4843492   3.4323606  51.3136134  43.5890792   0.6337345
  52.0545848  44.1897946   0.5541808  51.5454057  42.8468430   0.0755388
  46.4577472  48.7747160  -1.0884425  46.3430987  47.8732417  -0.7877326
  45.6021990  49.0210856  -1.4399608  53.5369310  56.7164900   0.5103076
  53.0933164  55.9301279   0.1923980  54.1986524  56.9044051  -0.1553033
  48.2956431  58.2460702  -4.9636246  48.8463856  58.1177765  -5.7359252
  47.4567907  58.5455591  -5.3141353  55.6350548  56.9967700  -1.4615523
  55.6169023  57.8176581  -1.9535254  56.5570468  56.8721775  -1.2365382
  52.0923602  54.5111829  -0.6192015  52.6251939  53.7500118  -0.8492707
  51.5637683  54.2185481   0.1232140  58.4369161  51.8346842  -7.9906156
  57.7792835  52.5246104  -7.9026028  59.2409560  52.2243274  -7.6472170
  56.4569355  57.0073713 -10.8773254  56.7492330  57.5678770 -11.5960888
  56.9667976  57.3002274 -10.1220095  54.8668614  48.2538132  -2.8899171
  55.2218002  48.4809605  -2.0304706  55.5140745  48.5856509  -3.5121916
  60.6235731  53.4433095  -7.1738571  61.0572237  53.3508384  -6.3255517
  61.3367311  53.4190595  -7.8118555  54.3563626  57.0435189  -5.6405470
  54.4100648  57.6126125  -4.8727754  53.4878407  57.2137074  -6.0051433
  61.4851280  53.4856795  -4.6405685  61.6787170  54.3902606  -4.3946410
  61.3851898  53.0264214  -3.8067100  53.1387591  43.3714686  -2.1415358
  52.4915506  44.0704636  -2.2350882  53.9088606  43.8050830  -1.7739110
  56.5466389  53.6363538   0.9335195  56.3951895  53.4074090   0.0165279
  56.5371068  54.5934140   0.9466540  53.3151725  51.2095451  -4.0818538
  54.2443785  51.3606611  -4.2549571  52.8942755  51.2979472  -4.9369892
  52.1140057  55.2346115  -6.3120001  51.9751143  54.8664900  -5.4394063
  51.3254653  55.7493755  -6.4836043  47.6389516  50.0195348  -3.3978582
  47.5009314  49.2875587  -2.7967043  48.5494440  49.9304248  -3.6794394
  50.2671817  49.7315307  -3.9094902  50.9771435  49.0908500  -3.9508284
  50.2241125  49.9828202  -2.9868721  58.2558596  56.6682661  -0.9888323
  58.1971142  55.9841881  -1.6557740  58.6578114  57.4101651  -1.4407697
  47.2749294  63.4844575  -8.1954604  47.5145893  64.1163099  -7.5175585
  46.4318491  63.1332615  -7.9089245  58.2576003  54.6322245  -2.7574343
  57.3702782  54.2948166  -2.6347944  58.8274554  53.9005276  -2.5205578
  51.7877156  59.2923697  -5.7913100  51.7147328  60.0978668  -5.2793795
  51.3454549  59.4915663  -6.6165079  62.7393343  50.0430462  -7.9957782
  62.7283220  50.9255177  -8.3663848  61.8710723  49.6902013  -8.1903245
  54.2475840  59.1910531  -3.6354941  54.9603812  59.8257996  -3.7079040
  53.7565868  59.2874397  -4.4514940  49.2987753  56.9404974  -2.8149371
  49.9997213  57.5741457  -2.6619976  48.8282868  57.2819706  -3.5753731
  57.0989039  49.4949582  -4.9896820  56.4460490  49.7425489  -5.6444367
  57.4769419  48.6813720  -5.3234343  54.0596213  59.5309275 -10.8868650
  54.2418608  58.7130931 -10.4240898  54.8829199  59.7476967 -11.3243760
  53.1476612  50.2369393   1.4969217  52.4717249  50.1363522   2.1671592
  53.9704246  50.0808607   1.9605214  44.8955471  56.4741330  -5.8818268
  45.4808908  55.7285017  -5.7490364  44.6980310  56.7845286  -4.9981604
  51.8899395  61.5436320  -4.2673167  52.4417703  61.7067942  -3.5024082
  52.2305589  62.1340758  -4.9393142  46.3416161  45.9634603  -0.0178248
  46.9688200  45.5811680   0.5959276  45.4844080  45.7448805   0.3477444
  56.7410270  56.3697578   1.5875487  57.2850174  56.9827536   1.0930442
  56.1597114  56.9277156   2.1042500  55.0267782  59.4918296  -7.2809485
  54.9018922  58.6908036  -7.7898539  55.6846874  59.9864489  -7.7695515
  57.0902691  57.2927316  -5.6529935  56.1433026  57.1732667  -5.7251608
  57.4385464  56.4049814  -5.5703673  54.0949124  57.0880032  -9.4525583
  53.9474087  56.1596740  -9.2718013  54.9202618  57.1100123  -9.9368507
  57.6983246  57.9108591  -8.3660710  58.6229793  57.7051452  -8.5036259
  57.5298549  57.6624992  -7.4571368  52.0365207  59.1094802  -2.2524513
  52.3452333  58.8643949  -1.3801813  52.8340689  59.3141440  -2.7405643
  52.0585819  61.2632712 -10.0219136  51.6190809  60.7709090  -9.3286279
  52.8093936  60.7205679 -10.2627061  49.5784218  45.2852509   1.6435672
  49.6272374  46.1614632   1.2613441  50.1206732  44.7429902   1.0707315
  60.0639064  55.8293632   0.9236809  59.2734608  55.8117771   0.3841308
  59.8272418  56.3681926   1.6785845  60.1836939  52.6786098  -1.7630463
  60.2334944  52.5136106  -0.8214940  60.0750862  51.8113357  -2.1532582
  57.4740701  48.6617026  -0.4471156  58.3750564  48.5223491  -0.7387158
  57.5488676  48.8271481   0.4927021  51.8083507  46.0383881  -1.6017970
  50.9386816  46.3317447  -1.8735381  52.0442987  46.6224326  -0.8810706
  61.6855136  55.0983040  -1.5188441  61.3939944  55.4613020  -0.6824980
  61.0727267  54.3850048  -1.6975109  62.8850818  52.6635920  -8.9985871
  63.7197709  53.1025724  -8.8348311  63.0209947  52.1874573  -9.8177625
  59.9342324  50.2215655  -3.0508383  60.4096446  50.4143301  -3.8589532
  59.0107889  50.2774840  -3.2965000  58.6343993  47.0981415  -4.8180078
  59.5861416  47.1979512  -4.7967854  58.4647443  46.3059683  -4.3081993
  61.1132071  50.3187534  -5.7037778  61.0808391  49.3803535  -5.5178094
  61.7232694  50.3971571  -6.4371953  61.2626559  47.1098578  -5.6579495
  60.7465608  46.3257034  -5.8449566  62.1466508  46.7817294  -5.4932975
  66.9308621  51.3803541  -6.5631741  67.6612009  51.1188829  -6.0024038
  66.3215566  50.6432263  -6.5229673  65.0123918  49.5211404  -5.9657290
  64.2857081  49.3867369  -6.5740799  64.5971205  49.8288232  -5.1600572
  52.8354094  53.2401333   1.7990083  53.7557104  53.4179932   1.9930129
  52.8003677  52.2957379   1.6469782  50.7044032  46.7235574   3.8315613
  50.6040759  47.6729931   3.7627704  50.4865574  46.3953813   2.9591683
  50.5675302  50.1532713   2.6480675  50.0842384  50.9533073   2.8544564
  50.6536241  50.1640658   1.6948119  46.4948640  54.0437247  -5.3150892
  47.4491893  54.0121190  -5.3820960  46.2961163  53.5827871  -4.5000666
  47.0848022  52.6138363  -2.7480094  47.9040911  53.1082442  -2.7245257
  47.3584829  51.6970332  -2.7762526  48.0067994  60.4826184  -8.0862251
  47.8900378  61.4271616  -8.1883561  47.1860441  60.1799745  -7.6976452
  54.8636328  54.0157345   3.4504244  55.7327488  54.1897997   3.0890879
  54.3843080  54.8351762   3.3279973  49.0322508  61.1354446  -4.8706323
  49.9349755  61.1678056  -4.5539828  48.8059878  60.2054897  -4.8559987
  50.7876110  59.8885432  -8.2096244  49.8371741  59.8887294  -8.3231872
  51.0908597  59.1418167  -8.7260209  46.6780427  44.0944114   2.0487117
  47.5411889  43.7380919   2.2590442  46.1045838  43.7558009   2.7362522
  63.8138293  66.8308251  -1.2502751  63.8026934  66.4361049  -2.1222248
  63.9758933  66.0974323  -0.6568980  60.5345554  69.6145362  -2.3023567
  60.2435420  70.5190993  -2.4176901  61.1702539  69.6561890  -1.5879498
  69.0003920  57.0994232  -4.7069686  68.6687245  57.9689643  -4.9308471
  68.4049533  56.7830516  -4.0275656  56.3056732  65.3953848  -8.4393280
  56.4349113  65.6488327  -7.5253868  55.6254183  65.9881556  -8.7588625
  62.9673449  63.2378964   0.3158561  62.1906783  63.7972884   0.3061426
  63.6064012  63.7235747   0.8373431  70.7594230  60.0205756  -5.8498462
  70.1168610  60.3138290  -6.4958668  70.2549158  59.9058677  -5.0445266
  61.2219821  66.0464417  -0.1223472  61.9634506  66.5849461  -0.3988648
  60.5156807  66.6730706   0.0348080  66.6975161  68.1893557  -1.5251311
  67.1058517  67.7475968  -2.2696678  65.9752422  67.6146185  -1.2717118
  63.0506231  63.1266164  -4.1517754  63.8967426  63.5505578  -4.0083105
  62.9904869  62.4699789  -3.4579191  66.2005676  60.7870533  -2.4936580
  65.9566608  61.5412593  -3.0302304  66.4765607  61.1655880  -1.6589333
  65.7570368  59.9426966  -6.9122742  64.8954847  60.2408219  -6.6206005
  65.7832803  60.1597365  -7.8441710  59.9581185  63.2004065   0.6791838
  59.3279846  63.8820346   0.9127235  59.8517273  63.0887147  -0.2655024
  55.2526157  62.8675861  -8.3942238  54.4625211  63.1233390  -8.8702127
  55.7437405  63.6824199  -8.2890197  63.0346570  69.7565144  -3.4876247
  63.0991003  70.2185551  -2.6518075  62.3257494  69.1262509  -3.3593937
  53.5363860  63.1206352  -5.9627247  53.7871899  64.0053362  -5.6969671
  54.0723409  62.9410953  -6.7352155  59.2361928  57.5024831   3.0417089
  58.8428873  56.9491030   3.7164733  60.0528068  57.8135410   3.4323606
  62.1529889  58.9182710   0.6337345  62.8939602  59.5189863   0.5541808
  62.3847812  58.1760348   0.0755388  57.2971227  64.1039077  -1.0884425
  57.1824742  63.2024335  -0.7877326  56.4415745  64.3502774  -1.4399608
  64.3763065  72.0456818   0.5103076  63.9326919  71.2593196   0.1923980
  65.0380278  72.2335968  -0.1553033  62.9317357  69.8403747  -0.6192015
  63.4645694  69.0792035  -0.8492707  62.4031438  69.5477399   0.1232140
  66.0987052  54.9463813  -5.0898373  65.7551321  55.8365455  -5.1659262
  66.4666014  54.7565471  -5.9528788  65.1783592  57.3168468  -7.1249140
  64.6748388  57.2798603  -7.9381334  65.4714199  58.2261211  -7.0652483
  61.4226478  57.4007198  -8.1182958  62.2879475  57.2050007  -8.4777068
  61.4903987  57.1717550  -7.1913601  59.0288797  59.6309406 -10.7466591
  59.6032549  59.4084587 -11.4793398  59.6159779  59.6998100  -9.9937990
  61.3311465  56.5050655 -12.0191522  60.6775877  56.1899672 -12.6434907
  61.2891939  55.8826395 -11.2931699  67.8974717  54.2057372  -9.9880635
  68.2033594  53.3454736 -10.2754720  68.6227322  54.7974992 -10.1881641
  65.7062369  63.5830050  -2.8899171  66.0611756  63.8101523  -2.0304706
  66.3534500  63.9148426  -3.5121916  59.6002232  60.6906581  -6.1052830
  60.2401611  60.5495340  -6.8029867  58.7679762  60.4041094  -6.4814228
  56.6030848  60.6606906 -11.3279843  56.8637665  61.5752239 -11.4370683
  57.4248021  60.1931348 -11.1783231  58.0755774  62.0744663  -4.1581019
  58.7478827  61.8662025  -4.8068370  57.2485560  61.8766749  -4.5975787
  63.9781346  58.7006604  -2.1415358  63.3309261  59.3996553  -2.2350882
  64.7482361  59.1342748  -1.7739110  67.3860143  68.9655456   0.9335195
  67.2345650  68.7366008   0.0165279  67.3764823  69.9226057   0.9466540
  64.1545480  66.5387369  -4.0818538  65.0837540  66.6898528  -4.2549571
  63.7336510  66.6271389  -4.9369892  58.4783271  65.3487266  -3.3978582
  58.3403069  64.6167505  -2.7967043  59.3888194  65.2596166  -3.6794394
  61.1065571  65.0607225  -3.9094902  61.8165190  64.4200417  -3.9508284
  61.0634880  65.3120120  -2.9868721  59.8194505  62.0472443  -2.0899263
  59.2831862  61.5963181  -1.4377666  59.2311214  62.1818352  -2.8328798
  50.7498905  66.2938254  -9.4331292  51.4369944  65.9799984 -10.0210277
  50.5947033  67.1979619  -9.7064040  55.5533627  61.1828451  -5.0046268
  55.4691815  60.5754120  -5.7395858  54.7316333  61.6737469  -5.0036772
  60.1381508  72.2696892  -2.8149371  60.8390967  72.9033375  -2.6619976
  59.6676623  72.6111624  -3.5753731  68.1676335  56.6351608  -7.4896714
  67.2539415  56.8655834  -7.3214507  68.5969437  56.7190052  -6.6382682
  63.9870367  65.5661311   1.4969217  63.3111004  65.4655440   2.1671592
  64.8098001  65.4100524   1.9605214  55.7349226  71.8033247  -5.8818268
  56.3202663  71.0576935  -5.7490364  55.5374064  72.1137204  -4.9981604
  50.3266881  64.3738847  -7.1613825  50.3650980  63.8402438  -6.3676707
  49.8207173  63.8474053  -7.7802848  57.7057643  59.2203388  -3.6651282
  57.7698969  60.0818219  -4.0773885  57.6424763  58.6077390  -4.3978924
  57.1809915  61.2926520  -0.0178248  57.8081954  60.9103598   0.5959276
  56.3237834  61.0740722   0.3477444  67.5804024  71.6989496   1.5875487
  68.1243928  72.3119454   1.0930442  66.9990869  72.2569074   2.1042500
  57.4869705  61.1758946  -8.1032345  56.7656291  61.7894914  -8.2424871
  58.2762961  61.7116711  -8.1815699  60.2896019  58.5113373  -1.8291693
  60.8130421  58.7575669  -1.0665384  60.0708352  59.3433407  -2.2488556
  61.4948564  59.4527068  -4.1442022  61.1545384  58.6534881  -3.7421343
  60.7887570  59.7528779  -4.7165189  62.1465036  56.5376380  -5.6914699
  62.9691105  56.0636858  -5.8135809  62.3903099  57.3166864  -5.1916013
  59.6703614  63.2295501  -7.8822721  59.5248195  63.5435804  -6.9898439
  59.1928818  63.8480401  -8.4351822  61.5299997  60.2198049  -7.8341831
  61.5161566  59.3239142  -8.1709533  62.2472425  60.2268713  -7.2003545
  63.3826128  60.6535389  -5.7888704  63.1243906  61.5752460  -5.7904373
  62.8511168  60.2565824  -5.0988240  54.1449277  65.7700845  -4.9435060
  53.6002745  66.5460653  -4.8114785  55.0228626  66.1171650  -5.1015938
  63.8028084  56.7867340  -9.4287541  63.8249780  56.8506673 -10.3835562
  64.2196143  55.9471848  -9.2347035  54.9315298  64.8970741  -2.0504903
  54.1897034  65.0453377  -1.4640272  54.6108043  65.1579007  -2.9138153
  60.4177973  60.6144426   1.6435672  60.4666128  61.4906549   1.2613441
  60.9600487  60.0721819   1.0707315  70.9032818  71.1585550   0.9236809
  70.1128362  71.1409689   0.3841308  70.6666173  71.6973843   1.6785845
  71.0230693  68.0078016  -1.7630463  71.0728698  67.8428024  -0.8214940
  70.9144617  67.1405275  -2.1532582  68.3134456  63.9908944  -0.4471156
  69.2144319  63.8515409  -0.7387158  68.3882430  64.1563399   0.4927021
  62.6477261  61.3675799  -1.6017970  61.7780571  61.6609365  -1.8735381
  62.8836742  61.9516244  -0.8810706  65.3516295  57.5855416  -4.0852549
  65.8698239  58.3216443  -4.4106061  64.9971428  57.8919409  -3.2505790
  65.6028889  54.0055698  -8.5651653  65.8830643  53.3378887  -7.9391226
  66.3879496  54.1984794  -9.0776989  69.4737748  62.4273332  -4.8180078
  70.4255170  62.5271430  -4.7967854  69.3041198  61.6351601  -4.3081993
  67.4952127  59.5128916  -4.6320677  66.9002059  59.7933928  -5.3274188
  67.2101824  60.0022816  -3.8603936  63.6747849  68.5693251   1.7990083
  64.5950858  68.7471850   1.9930129  63.6397432  67.6249296   1.6469782
  52.8930014  63.7631845  -9.2756642  52.5732798  62.9097153  -9.5682268
  52.3463442  63.9780423  -8.5198675  56.6709921  66.4794286  -5.5587136
  56.8895931  67.4111394  -5.5399102  57.0835695  66.1202260  -4.7732332
  61.5437787  62.0527492   3.8315613  61.4434513  63.0021848   3.7627704
  61.3259329  61.7245730   2.9591683  52.7618274  67.3834756  -7.3063521
  52.0681745  66.9688709  -7.8193566  53.5091265  67.4255293  -7.9030102
  61.4069057  65.4824630   2.6480675  60.9236138  66.2824990   2.8544564
  61.4929996  65.4932575   1.6948119  57.3342394  69.3729165  -5.3150892
  58.2885648  69.3413107  -5.3820960  57.1354918  68.9119789  -4.5000666
  57.9241776  67.9430281  -2.7480094  58.7434665  68.4374360  -2.7245257
  58.1978584  67.0262249  -2.7762526  53.1776690  62.2768415  -2.0487897
  53.8235554  61.7667369  -1.5600672  52.9693842  63.0137097  -1.4744472
  65.7030083  69.3449262   3.4504244  66.5721242  69.5189915   3.0890879
  65.2236834  70.1643679   3.3279973  65.5132420  53.1351236 -12.0418064
  64.7464816  52.5809723 -11.8961381  65.9243125  53.2073105 -11.1803912
  57.5174181  59.4236032   2.0487117  58.3805643  59.0672837   2.2590442
  56.9439592  59.0849927   2.7362522  70.0755682  72.8316749   3.0417089
  69.6822628  72.2782947   3.7164733  70.8921823  73.1427327   3.4323606
  68.3567936  74.7527950   2.0487117  69.2199398  74.3964755   2.2590442
  67.7833347  74.4141845   2.7362522  70.0755684  49.8378871 -10.2337604
  69.6822629  49.2845070  -9.5589960  70.8921824  50.1489450  -9.8431087
  68.3567937  51.7590072 -11.2267576  69.2199399  51.4026877 -11.0164251
  67.7833348  51.4203967 -10.5392172   1.4839674  97.2103688  43.8066785
   0.7303382  96.6411086  43.6510789   1.6187215  97.1766352  44.7537419
   1.8946089  97.3679298  46.5387029   2.6249477  97.1064586  47.0994732
   1.2853034  96.6308020  46.5789097   1.4839675  74.2165810  30.5312091
   0.7303383  73.6473208  30.3756096   1.6187216  74.1828475  31.4782726
   1.8946090  74.3741420  33.2632336   2.6249478  74.1126708  33.8240039
   1.2853035  73.6370142  33.3034404   1.4866273  88.7183850  32.6813595
   2.1244683  88.5990597  31.9776935   1.3687116  89.6664694  32.7401548
   1.0407542  86.4435304  29.7566803   1.8270631  86.0254727  29.4057220
   1.3046246  87.3481396  29.9248452   6.4415969  86.3810537  30.6599782
   7.1741141  85.8109754  30.8937611   5.6855325  85.9932137  31.1006288
   3.9641389  80.0932111  35.1194391   3.6324714  80.9627522  34.8955606
   3.3687003  79.7768395  35.7988421   3.8570052  84.8127197  32.1987741
   2.9486930  84.7442606  31.9046502   3.8057648  85.2899142  33.0269566
   5.7231699  83.0143636  33.9765615   5.0806079  83.3076169  33.3305409
   5.2186627  82.8996556  34.7818811   1.6612630  91.1831437  38.3012766
   2.0695986  90.7413847  37.5567399   0.9389892  90.6084064  38.5546959
   1.9841445  91.7432627  32.0565055   1.3550307  91.9078341  31.3541123
   1.5967107  92.1574237  32.8276019   5.8630677  92.6787065  29.4109419
   5.1781715  93.0585966  28.8606452   5.9474526  93.2882392  30.1441367
   1.1643146  83.7808412  37.3327497   0.9204077  84.5350472  36.7961773
   1.4403076  84.1593759  38.1674744   3.1181608  90.3247024  36.0104763
   3.3298504  90.9678784  35.3339144   3.0711357  89.4909341  35.5426693
   4.2327436  93.2018980  34.1827120   5.0544880  92.7999167  33.9009802
   4.2289839  93.0987214  35.1343236  12.3233429  89.5457728  30.5312091
  11.5697138  88.9765126  30.3756096  12.4580971  89.5120393  31.4782726
   1.4381772  95.3197497  38.3648554   1.4200247  96.1406378  37.8728823
   2.3601692  95.1951572  38.5898695   1.0624521  77.9401692  34.7365704
   0.7188790  78.8303334  34.6604815   1.4303484  77.7503350  33.8735289
   4.2400385  90.1576639  31.8357921   3.5824059  90.8475901  31.9238049
   5.0440784  90.5473071  32.1791907   3.0505844  88.5121012  29.8861863
   3.5637725  89.1451004  30.3883572   3.7007067  87.9122207  29.5205223
   2.7600559  84.4218999  29.2441673   2.0223316  83.9096386  29.5751915
   3.0127333  83.9819381  28.4324949   2.8612187  77.1995251  29.8383442
   3.1671063  76.3392615  29.5509357   3.5864791  77.7912872  29.6382436
   0.6699838  86.5767929  36.9364906   1.0249226  86.8039402  37.7959371
   1.3171969  86.9086305  36.3142161   6.3997575  89.6986365  27.6414235
   6.2615474  89.8887961  26.7135424   6.0433794  90.4605747  28.0982286
   6.4266955  91.7662892  32.6525506   6.8603461  91.6738181  33.5008560
   7.1398535  91.7420392  32.0145522   7.2882504  91.8086592  35.1858392
   7.4818394  92.7132403  35.4317667   7.1883122  91.3494011  36.0196977
   2.3497613  91.9593335  40.7599272   2.1983119  91.7303887  39.8429356
   2.3402292  92.9163936  40.7730617   4.0589819  94.9912458  38.8375754
   4.0002366  94.3071678  38.1706337   4.4609338  95.7331448  38.3856380
   4.0607227  92.9552041  37.0689734   3.1734005  92.6177963  37.1916133
   4.6305778  92.2235073  37.3058499   8.5424567  88.3660259  31.8306295
   8.5314443  89.2484974  31.4600229   7.6741947  88.0131810  31.6360832
   5.1597142  87.2608900  28.2976461   5.6257594  88.0936891  28.2236764
   5.6104642  86.7953881  29.0021720   3.1313805  79.6289487  32.3367363
   2.2176884  79.8593714  32.5049570   3.5606906  79.7127931  33.1881395
   2.9020263  87.8179379  34.8367257   2.2491713  88.0655286  34.1819710
   3.2800643  87.0043517  34.5029734   2.5441493  94.6927375  41.4139564
   3.0881397  95.3057333  40.9194519   1.9628338  95.2506953  41.9306577
   2.8933915  95.6157113  34.1734142   1.9464250  95.4962464  34.1012469
   3.2416688  94.7279611  34.2560404   3.5014470  96.2338388  31.4603367
   4.4261017  96.0281249  31.3227818   3.3329773  95.9854789  32.3692709
   9.1449177  89.5160478  28.4355758   9.5880323  88.7667803  28.0374882
   8.2675687  89.5070615  28.0529490   5.8670288  94.1523429  40.7500886
   5.0765831  94.1347568  40.2105385   5.6303642  94.6911723  41.5049922
   5.9868163  91.0015895  38.0633614   6.0366168  90.8365903  39.0049137
   5.8782086  90.1343154  37.6731495   3.2771925  86.9846823  39.3792921
   4.1781788  86.8453288  39.0876919   3.3519900  87.1501278  40.3191098
   7.4886360  93.4212837  38.3075636   7.1971168  93.7842817  39.1439097
   6.8758491  92.7079845  38.1288968   8.6882042  90.9865717  30.8278206
   9.5228933  91.4255521  30.9915766   8.8241171  90.5104370  30.0086452
   5.7373548  88.5445451  36.7755694   6.2127669  88.7373098  35.9674545
   4.8139113  88.6004637  36.5299077   0.5666358  76.9993577  31.2612424
   0.8468112  76.3316767  31.8872851   1.3516965  77.1922673  30.7487088
   4.4375217  85.4211211  35.0083999   5.3892640  85.5209309  35.0296223
   4.2678667  84.6289480  35.5182084   2.4589596  82.5066795  35.1943400
   1.8639528  82.7871807  34.4989889   2.1739293  82.9960696  35.9660141
   6.9163295  88.6417331  34.1226299   6.8839615  87.7033332  34.3085983
   7.5263918  88.7201368  33.3892124   7.0657783  85.4328375  34.1684582
   6.5496832  84.6486831  33.9814511   7.9497732  85.1047091  34.3331102
   4.7268510  79.1769390  30.1280395   4.5293331  78.8684478  31.0123727
   5.3368216  79.9031029  30.2578325  12.7339844  89.7033338  33.2632336
  13.4643233  89.4418626  33.8240039  12.1246790  88.9662060  33.3034404
  10.8155142  87.8441201  33.8606787  10.0888305  87.7097166  33.2523278
  10.4002428  88.1518029  34.6663505   0.4842157  79.0578297  27.8776926
   1.0373195  79.4773750  28.5366949   0.7212243  78.1314045  27.9199882
   3.8620964  81.1678822  27.3855590   3.2819633  81.8263626  27.0033643
   3.5956896  80.3456167  26.9743008   2.3124530  80.5683880  29.5876911
   2.8124308  80.6800414  28.7791230   2.9560138  80.2644933  30.2277719
   2.6445842  83.3278913  26.4411939   1.7571697  83.6128563  26.2232133
   3.0599831  83.1672676  25.5939216   5.9960378  83.3525434  30.1566278
   6.7720768  83.8421886  30.4290895   5.2708512  83.7783488  30.6138147
   8.4332936  84.0653053  31.2140219   9.0277427  83.8248789  30.5033527
   8.5059520  83.3460183  31.8413755   6.4291671  84.6323180  27.4812348
   6.1728606  84.2319816  28.3120556   5.8044539  85.3466974  27.3562487
  10.7404009  87.3719254  29.9883640  10.1803567  87.4412443  30.7615202
  10.1347513  87.1960238  29.2683136  11.8801296 101.7727221  29.7566803
  12.6664385 101.3546645  29.4057220  12.1440001 102.6773314  29.9248452
  17.2809723 101.7102455  30.6599782  18.0134895 101.1401671  30.8937611
  16.5249079 101.3224055  31.1006288  14.8035144  95.4224029  35.1194391
  14.4718468  96.2919440  34.8955606  14.2080757  95.1060313  35.7988421
  14.6963807 100.1419115  32.1987741  13.7880684 100.0734523  31.9046502
  14.6451403 100.6191060  33.0269566  16.5625453  98.3435553  33.9765615
  15.9199834  98.6368086  33.3305409  16.0580382  98.2288474  34.7818811
   8.8537455 101.4495961  35.6746323   9.6998650 101.8735375  35.8180972
   8.7936092 100.7929585  36.3684886  12.0036900  99.1100329  37.3327497
  11.7597832  99.8642390  36.7961773  12.2796831  99.4885677  38.1674744
  11.5601592  98.2656762  32.9141335  10.6986071  98.5638016  33.2058072
  11.5864026  98.4827161  31.9822367  23.1627184 104.8749646  30.5312091
  22.4090892 104.3057044  30.3756096  23.2974725 104.8412310  31.4782726
   5.0393152  95.8254628  42.8681166   4.6460097  95.2720826  43.5428810
   5.8559292  96.1365206  43.2587683   7.9561113  97.2412507  40.4601423
   8.6970826  97.8419660  40.3805885   8.1879035  96.4990145  39.9019465
  11.9018275  93.2693610  34.7365704  11.5582545  94.1595252  34.6604815
  12.2697238  93.0795268  33.8735289   9.4515669  98.1051922  28.3023378
   8.5957266  97.7158772  28.1229016   9.8642621  98.1843883  27.4423163
  10.9814816  95.6398265  32.7014937  10.4779611  95.6028400  31.8882743
  11.2745423  96.5491008  32.7611594   7.2257702  95.7236995  31.7081119
   8.0910699  95.5279803  31.3487009   7.2935211  95.4947347  32.6350476
   7.1342689  94.8280452  27.8072555   6.4807101  94.5129469  27.1829170
   7.0923163  94.2056192  28.5332378  10.3680429 101.3162385  32.1320203
   9.4502990 101.5377332  31.9741891  10.7840573 101.3908696  31.2731910
  13.5994314  99.7510917  29.2441673  12.8617071  99.2388303  29.5751915
  13.8521087  99.3111299  28.4324949  13.7005941  92.5287169  29.8383442
  14.0064818  91.6684533  29.5509357  14.4258546  93.1204789  29.6382436
  11.5093592 101.9059846  36.9364906  11.8642980 102.1331320  37.7959371
  12.1565724 102.2378223  36.3142161   5.4033456  99.0136377  33.7211247
   6.0432835  98.8725137  33.0234210   4.5710986  98.7270891  33.3449849
   9.7812569  97.0236401  37.6848719   9.1340484  97.7226350  37.5913195
  10.5513585  97.4572544  38.0524967   5.6225729 100.3702240  37.7364814
   5.0863086  99.9192978  38.3886411   5.0342438 100.5048149  36.9935279
  11.5288564  97.9911811  30.1888004  12.0257264  97.2381773  29.8689074
  10.7575546  98.0276128  29.6231213  19.3818322 103.6952177  31.8306295
  19.3708198 104.5776892  31.4600229  18.5135701 103.3423727  31.6360832
   8.1123533 100.1329194  29.9159689   7.7421321  99.5800234  30.6040594
   8.6082626  99.5287327  29.3634689  15.9990896 102.5900818  28.2976461
  16.4651349 103.4228809  28.2236764  16.4498397 102.1245799  29.0021720
  13.9707559  94.9581404  32.3367363  13.0570639  95.1885631  32.5049570
  14.4000661  95.0419849  33.1881395  13.7414018 103.1471296  34.8367257
  13.0885468 103.3947204  34.1819710  14.1194397 102.3335435  34.5029734
   3.5088867  97.5433185  36.1612795   3.5730193  98.4048016  35.7490192
   3.4455987  96.9307186  35.4285153   2.9841139  99.6156317  39.8085829
   3.6113178  99.2333395  40.4223353   2.1269058  99.3970519  40.1741521
   6.0927243  96.8343170  37.9972384   6.6161644  97.0805466  38.7598693
   5.8739576  97.6663204  37.5775521   7.2979788  97.7756865  35.6822055
   6.9576608  96.9764678  36.0842734   6.5918794  98.0758575  35.1098888
   7.9496259  94.8606177  34.1349378   8.7722329  94.3866655  34.0128268
   8.1934323  95.6396661  34.6348064   7.3331221  98.5427846  31.9922246
   7.3192790  97.6468939  31.6554544   8.0503649  98.5498509  32.6260532
   9.1857352  98.9765186  34.0375373   8.9275130  99.8982257  34.0359704
   8.6542392  98.5795620  34.7275837   9.6059307  95.1097136  30.3976536
   9.6281004  95.1736469  29.4428515  10.0227366  94.2701645  30.5917042
  19.9842932 104.8452396  28.4355758  20.4274078 104.0959721  28.0374882
  19.1069442 104.8362532  28.0529490   6.2209197  98.9374223  41.4699749
   6.2697352  99.8136346  41.0877518   6.7631711  98.3951616  40.8971392
  14.1165680 102.3138741  39.3792921  15.0175542 102.1745206  39.0876919
  14.1913654 102.4793196  40.3191098   8.4508485  99.6905596  38.2246107
   7.5811794  99.9839162  37.9528696   8.6867965 100.2746041  38.9453371
  16.5767302 103.8737369  36.7755694  17.0521424 104.0665015  35.9674545
  15.6532868 103.9296555  36.5299077  11.1547519  95.9085213  35.7411528
  11.6729463  96.6446240  35.4158016  10.8002652  96.2149206  36.5758287
  11.4060113  92.3285495  31.2612424  11.6861867  91.6608684  31.8872851
  12.1910720  92.5214591  30.7487088  15.2768971 100.7503129  35.0083999
  16.2286394 100.8501227  35.0296223  15.1072422  99.9581398  35.5182084
  13.2983351  97.8358712  35.1943400  12.7033283  98.1163725  34.4989889
  13.0133047  98.3252613  35.9660141  17.7557049 103.9709249  34.1226299
  17.7233369 103.0325250  34.3085983  18.3657673 104.0493286  33.3892124
  17.9051538 100.7620292  34.1684582  17.3890586  99.9778749  33.9814511
  18.7891486 100.4339009  34.3331102  15.5662264  94.5061308  30.1280395
  15.3687086  94.1976396  31.0123727  16.1761970  95.2322947  30.2578325
  23.5733599 105.0325256  33.2632336  24.3036987 104.7710544  33.8240039
  22.9640544 104.2953978  33.3034404  21.6548896 103.1733118  33.8606787
  20.9282060 103.0389083  33.2523278  21.2396183 103.4809947  34.6663505
   9.3945363  95.3092168  26.2552629   8.5846091  94.9639253  26.6307876
  10.0829780  94.9999712  26.8440241  11.3235911  94.3870215  27.8776926
  11.8766950  94.8065668  28.5366949  11.5605997  93.4605963  27.9199882
   7.3469010 100.3757288  43.6579690   7.2465737 101.3251645  43.5891781
   7.1290552 100.0475527  42.7855760  14.7014718  96.4970740  27.3855590
  14.1213387  97.1555544  27.0033643  14.4350651  95.6748084  26.9743008
  13.1518285  95.8975798  29.5876911  13.6518063  96.0092332  28.7791230
  13.7953892  95.5936850  30.2277719  13.4839596  98.6570830  26.4411939
  12.5965451  98.9420481  26.2232133  13.8993585  98.4964594  25.5939216
  16.8354132  98.6817351  30.1566278  17.6114522  99.1713804  30.4290895
  16.1102267  99.1075405  30.6138147  19.2726691  99.3944970  31.2140219
  19.8671182  99.1540706  30.5033527  19.3453275  98.6752101  31.8413755
  17.2685426  99.9615098  27.4812348  17.0122360  99.5611734  28.3120556
  16.6438294 100.6758892  27.3562487  21.5797764 102.7011171  29.9883640
  21.0197322 102.7704361  30.7615202  20.9741267 102.5252156  29.2683136
  11.3163644  91.4581033  27.7846013  10.5496040  90.9039520  27.9302696
  11.7274349  91.5302902  28.6460165   3.3205405  97.7465829  41.8751194
   4.1836867  97.3902634  42.0854519   2.7470816  97.4079724  42.5626599
   1.4839676  51.2227933  17.2557398   0.7303385  50.6535331  17.1001402
   1.6187217  51.1890597  18.2028033   1.8946091  51.3803543  19.9877642
   2.6249480  51.1188831  20.5485346   1.2853037  50.6432265  20.0279710
   1.4866274  65.7245973  19.4058902   2.1244684  65.6052720  18.7022242
   1.3687117  66.6726816  19.4646854   1.0407543  63.4497426  16.4812110
   1.8270632  63.0316850  16.1302527   1.3046247  64.3543519  16.6493758
   6.4415970  63.3872660  17.3845089   7.1741142  62.8171876  17.6182918
   5.6855326  62.9994260  17.8251594   3.9641390  57.0994234  21.8439697
   3.6324715  57.9689645  21.6200912   3.3687004  56.7830518  22.5233728
   3.8570054  61.8189320  18.9233047   2.9486931  61.7504728  18.6291808
   3.8057650  62.2961265  19.7514873   5.7231700  60.0205758  20.7010921
   5.0806080  60.3138291  20.0550716   5.2186629  59.9058679  21.5064118
   1.6612631  68.1893559  25.0258073   2.0695988  67.7475970  24.2812705
   0.9389893  67.6146187  25.2792266   1.9841446  68.7494750  18.7810362
   1.3550309  68.9140464  18.0786430   1.5967108  69.1636359  19.5521326
   5.8630678  69.6849188  16.1354726   5.1781716  70.0648089  15.5851759
   5.9474527  70.2944514  16.8686673   1.1643147  60.7870534  24.0572804
   0.9204079  61.5412595  23.5207079   1.4403077  61.1655882  24.8920051
   3.1181610  67.3309147  22.7350069   3.3298505  67.9740907  22.0584450
   3.0711358  66.4971463  22.2671999   4.2327438  70.2081102  20.9072427
   5.0544881  69.8061289  20.6255108   4.2289840  70.1049336  21.8588542
  12.3233431  66.5519851  17.2557398  11.5697139  65.9827249  17.1001402
  12.4580972  66.5182515  18.2028033   1.4381773  72.3259619  25.0893861
   1.4200248  73.1468500  24.5974130   2.3601693  72.2013695  25.3144002
   1.0624522  54.9463815  21.4611011   0.7188792  55.8365457  21.3850121
   1.4303485  54.7565472  20.5980596   4.2400386  67.1638762  18.5603227
   3.5824060  67.8538023  18.6483356   5.0440785  67.5535194  18.9037214
   3.0505845  65.5183135  16.6107169   3.5637727  66.1513126  17.1128879
   3.7007069  64.9184330  16.2450529   2.7600561  61.4281122  15.9686979
   2.0223317  60.9158508  16.2997222   3.0127334  60.9881504  15.1570256
   2.8612188  54.2057374  16.5628749   3.1671065  53.3454737  16.2754664
   3.5864793  54.7974994  16.3627742   0.6699839  63.5830051  23.6610212
   1.0249227  63.8101524  24.5204678   1.3171970  63.9148428  23.0387468
   6.3997576  66.7048487  14.3659541   6.2615475  66.8950083  13.4380731
   6.0433795  67.4667870  14.8227592   6.4266956  68.7725014  19.3770813
   6.8603462  68.6800303  20.2253867   7.1398536  68.7482515  18.7390829
   7.2882505  68.8148715  21.9103698   7.4818395  69.7194525  22.1562973
   7.1883124  68.3556134  22.7442283   2.3497614  68.9655458  27.4844579
   2.1983120  68.7366009  26.5674663   2.3402293  69.9226059  27.4975924
   4.0589821  71.9974580  25.5621061   4.0002367  71.3133800  24.8951644
   4.4609339  72.7393570  25.1101687   4.0607228  69.9614164  23.7935040
   3.1734007  69.6240086  23.9161439   4.6305779  69.2297195  24.0303806
   8.5424568  65.3722381  18.5551602   8.5314445  66.2547097  18.1845535
   7.6741948  65.0193932  18.3606139   5.1597143  64.2671022  15.0221768
   5.6257595  65.0999014  14.9482071   5.6104644  63.8016004  15.7267027
   3.1313806  56.6351609  19.0612669   2.2176886  56.8655836  19.2294876
   3.5606907  56.7190053  19.9126702   2.9020264  64.8241501  21.5612563
   2.2491715  65.0717409  20.9065016   3.2800644  64.0105640  21.2275041
   2.5441495  71.6989497  28.1384871   3.0881399  72.3119456  27.6439826
   1.9628339  72.2569076  28.6551884   2.8933916  72.6219236  20.8979449
   1.9464251  72.5024587  20.8257776   3.2416689  71.7341734  20.9805710
   3.5014471  73.2400510  18.1848674   4.4261019  73.0343372  18.0473125
   3.3329774  72.9916912  19.0938015   9.1449178  66.5222601  15.1601065
   9.5880324  65.7729926  14.7620188   8.2675689  66.5132737  14.7774797
   5.8670289  71.1585551  27.4746192   5.0765833  71.1409690  26.9350692
   5.6303644  71.6973845  28.2295229   5.9868164  68.0078018  24.7878921
   6.0366169  67.8428025  25.7294444   5.8782087  67.1405277  24.3976802
   3.2771926  63.9908946  26.1038227   4.1781789  63.8515411  25.8122225
   3.3519901  64.1563401  27.0436405   7.4886361  70.4274959  25.0320942
   7.1971169  70.7904940  25.8684403   6.8758492  69.7141968  24.8534274
   8.6882043  67.9927839  17.5523513   9.5228935  68.4317643  17.7161073
   8.8241172  67.5166492  16.7331758   5.7373549  65.5507574  23.5001000
   6.2127671  65.7435220  22.6919852   4.8139114  65.6066760  23.2544384
   0.5666360  54.0055700  17.9857731   0.8468113  53.3378889  18.6118157
   1.3516967  54.1984796  17.4732395   4.4375218  62.4273334  21.7329306
   5.3892641  62.5271432  21.7541530   4.2678668  61.6351603  22.2427390
   2.4589598  59.5128917  21.9188707   1.8639530  59.7933930  21.2235195
   2.1739294  60.0022818  22.6905448   6.9163296  65.6479454  20.8471606
   6.8839616  64.7095455  21.0331289   7.5263920  65.7263490  20.1137430
   7.0657784  62.4390497  20.8929889   6.5496833  61.6548954  20.7059818
   7.9497733  62.1109214  21.0576408   4.7268511  56.1831513  16.8525701
   4.5293332  55.8746601  17.7369033   5.3368217  56.9093152  16.9823631
  12.7339846  66.7095461  19.9877642  13.4643234  66.4480749  20.5485346
  12.1246791  65.9724183  20.0279710  10.8155143  64.8503323  20.5852094
  10.0888306  64.7159288  19.9768585  10.4002430  65.1580152  21.3908812
   0.4842158  56.0640420  14.6022233   1.0373196  56.4835873  15.2612256
   0.7212244  55.1376168  14.6445189   3.8620965  58.1740945  14.1100897
   3.2819634  58.8325749  13.7278949   3.5956898  57.3518289  13.6988315
   2.3124531  57.5746003  16.3122217   2.8124310  57.6862537  15.5036536
   2.9560139  57.2707055  16.9523026   2.6445843  60.3341035  13.1657245
   1.7571698  60.6190686  12.9477440   3.0599832  60.1734799  12.3184522
   5.9960379  60.3587556  16.8811585   6.7720769  60.8484009  17.1536201
   5.2708513  60.7845610  17.3383454   8.4332938  61.0715175  17.9385525
   9.0277429  60.8310911  17.2278833   8.5059521  60.3522306  18.5659061
   6.4291673  61.6385303  14.2057655   6.1728607  61.2381939  15.0365863
   5.8044541  62.3529097  14.0807794  10.7404010  64.3781376  16.7128946
  10.1803568  64.4474566  17.4860508  10.1347514  64.2022361  15.9928443
  12.3260029  81.0537890  19.4058902  12.9638439  80.9344638  18.7022242
  12.2080872  82.0018734  19.4646854   9.1349735  81.0065318  19.3420427
   8.7968247  80.8906383  18.4540962  10.0039503  80.6056483  19.3221433
   9.6169518  82.1600170  25.3006632   9.6058159  81.7652968  24.4287136
   9.7790158  81.4266243  25.8940404   6.3376779  84.9437282  24.2485816
   6.0466645  85.8482913  24.1332483   6.9733764  84.9853809  24.9629886
   7.2632986  82.3214130  20.8387176   7.8596558  82.0970153  20.1244139
   7.3207958  81.5798876  21.4412624  11.8801297  78.7789344  16.4812110
  12.6664387  78.3608767  16.1302527  12.1440002  79.6835436  16.6493758
  17.2809725  78.7164577  17.3845089  18.0134897  78.1463794  17.6182918
  16.5249080  78.3286178  17.8251594  14.8035145  72.4286151  21.8439697
  14.4718470  73.2981562  21.6200912  14.2080758  72.1122435  22.5233728
  11.2966664  84.6298697  21.2435610  10.9967388  85.5323736  21.1351417
  10.9517724  84.3630881  22.0956763  14.6963808  77.1481238  18.9233047
  13.7880686  77.0796646  18.6291808  14.6451404  77.6253182  19.7514873
   8.7704674  78.5670883  26.8667945   7.9938008  79.1264803  26.8570809
   9.4095237  79.0527666  27.3882815  16.5625455  75.3497676  20.7010921
  15.9199835  75.6430209  20.0550716  16.0580383  75.2350596  21.5064118
   7.0251046  81.3756336  26.4285912   7.7665731  81.9141380  26.1520735
   6.3188032  82.0022625  26.5857463  12.5006386  83.5185477  25.0258073
  12.9089742  83.0767887  24.2812705  11.7783647  82.9438104  25.2792266
   8.8537456  78.4558084  22.3991630   9.6998651  78.8797497  22.5426279
   8.7936094  77.7991708  23.0930193  12.8235201  84.0786668  18.7810362
  12.1944063  84.2432382  18.0786430  12.4360863  84.4928277  19.5521326
  16.7024433  85.0141105  16.1354726  16.0175471  85.3940007  15.5851759
  16.7868282  85.6236432  16.8686673  12.0036901  76.1162452  24.0572804
  11.7597833  76.8704513  23.5207079  12.2796832  76.4947800  24.8920051
  13.9575364  82.6601064  22.7350069  14.1692259  83.3032824  22.0584450
  13.9105112  81.8263381  22.2671999  11.5601593  75.2718885  19.6386641
  10.6986072  75.5700139  19.9303379  11.5864028  75.4889284  18.7067674
   5.7612410  78.5295985  27.2301222   5.1311071  79.2112265  27.4636618
   5.6548498  78.4179066  26.2854360  15.0721192  85.5373020  20.9072427
  15.8938636  85.1353207  20.6255108  15.0683595  85.4341254  21.8588542
   8.8377796  85.0857063  23.0633137   8.9022228  85.5477470  23.8991309
   8.1288719  84.4554428  23.1915447  23.1627185  81.8811768  17.2557398
  22.4090893  81.3119166  17.1001402  23.2974726  81.8474433  18.2028033
   5.0393153  72.8316750  29.5926473   4.6460098  72.2782949  30.2674117
   5.8559293  73.1427329  29.9832990   7.9561114  74.2474630  27.1846729
   8.6970827  74.8481783  27.1051192   8.1879037  73.5052267  26.6264772
   3.1002452  79.4330997  25.4624959   2.9855967  78.5316254  25.7632058
   2.2446970  79.6794694  25.1109775  10.1794290  87.3748737  27.0612459
   9.7358144  86.5885116  26.7433364  10.8411503  87.5627888  26.3956350
  12.2775528  87.6551537  25.0893861  12.2594003  88.4760418  24.5974130
  13.1995448  87.5305612  25.3144002   8.7348582  85.1695667  25.9317369
   9.2676919  84.4083955  25.7016677   8.2062663  84.8769318  26.6741524
  11.9018277  70.2755733  21.4611011  11.5582546  71.1657374  21.3850121
  12.2697239  70.0857390  20.5980596   9.4515670  75.1114044  15.0268684
   8.5957267  74.7220895  14.8474323   9.8642622  75.1906005  14.1668470
  10.9814817  72.6460388  19.4260244  10.4779613  72.6090523  18.6128049
  11.2745424  73.5553130  19.4856901   7.2257703  72.7299117  18.4326426
   8.0910700  72.5341926  18.0732315   7.2935212  72.5009469  19.3595783
  15.0794140  82.4930680  18.5603227  14.4217815  83.1829941  18.6483356
  15.8834540  82.8827111  18.9037214  13.8899599  80.8475052  16.6107169
  14.4031481  81.4805044  17.1128879  14.5400823  80.2476248  16.2450529
   7.1342690  71.8342574  14.5317862   6.4807102  71.5191591  13.9074477
   7.0923164  71.2118315  15.2577685  10.3680430  78.3224508  18.8565510
   9.4502992  78.5439455  18.6987198  10.7840574  78.3970818  17.9977217
  13.5994315  76.7573040  15.9686979  12.8617072  76.2450426  16.2997222
  13.8521089  76.3173421  15.1570256  13.7005942  69.5349292  16.5628749
  14.0064819  68.6746655  16.2754664  14.4258547  70.1266912  16.3627742
  11.5093594  78.9121969  23.6610212  11.8642981  79.1393442  24.5204678
  12.1565725  79.2440346  23.0387468  17.2391331  82.0340405  14.3659541
  17.1009229  82.2242001  13.4380731  16.8827549  82.7959788  14.8227592
   5.4033457  76.0198500  20.4456553   6.0432836  75.8787259  19.7479517
   4.5710987  75.7333013  20.0695155  17.2660710  84.1016932  19.3770813
  17.6997217  84.0092221  20.2253867  17.9792291  84.0774432  18.7390829
  10.9988605  87.7019026  20.9103913  11.0525627  88.2709962  21.6781629
  10.1303387  87.8720911  20.5457951   3.8786999  77.4036582  22.3928365
   4.5510052  77.1953944  21.7441014   3.0516785  77.2058668  21.9533597
  18.1276260  84.1440633  21.9103698  18.3212150  85.0486443  22.1562973
  18.0276878  83.6848052  22.7442283   9.7812571  74.0298523  24.4094026
   9.1340486  74.7288473  24.3158502  10.5513586  74.4634667  24.7770274
  13.1891369  84.2947375  27.4844579  13.0376875  84.0657927  26.5674663
  13.1796048  85.2517977  27.4975924   9.9576705  81.8679288  22.4690845
  10.8868765  82.0190448  22.2959813   9.5367735  81.9563309  21.6139492
   4.2814496  80.6779185  23.1530802   4.1434294  79.9459424  23.7542341
   5.1919419  80.5888085  22.8714990   6.9096796  80.3899144  22.6414482
   7.6196415  79.7492337  22.6001100   6.8666105  80.6412039  23.5640662
  14.8983575  87.3266498  25.5621061  14.8396121  86.6425718  24.8951644
  15.3003094  88.0685488  25.1101687   5.6225730  77.3764362  24.4610121
   5.0863087  76.9255101  25.1131717   5.0342439  77.5110271  23.7180585
  14.9000982  85.2906082  23.7935040  14.0127761  84.9532004  23.9161439
  15.4699533  84.5589113  24.0303806   1.3564852  76.5120370  21.5463116
   1.2723040  75.9046040  20.8113525   0.5347558  77.0029388  21.5472612
  11.5288566  74.9973934  16.9133311  12.0257265  74.2443896  16.5934381
  10.7575547  75.0338250  16.3476520  19.3818323  80.7014299  18.5551602
  19.3708199  81.5839015  18.1845535  18.5135702  80.3485850  18.3606139
  10.8900819  89.8494368  22.9154442  11.6028792  90.4841833  22.8430344
  10.3990848  89.9458234  22.0994444   8.1123534  77.1391317  16.6404995
   7.7421322  76.5862357  17.3285901   8.6082627  76.5349450  16.0879995
  15.9990898  79.5962940  15.0221768  16.4651350  80.4290932  14.9482071
  16.4498398  79.1307922  15.7267027  13.9707560  71.9643527  19.0612669
  13.0570640  72.1947754  19.2294876  14.4000662  72.0481971  19.9126702
  13.7414019  80.1533419  21.5612563  13.0885469  80.4009327  20.9065016
  14.1194399  79.3397557  21.2275041   9.7901592  80.8953230  28.0478601
   9.1142229  80.7947359  28.7180976  10.6129226  80.7392444  28.5114598
   3.5088868  74.5495307  22.8858101   3.5730194  75.4110138  22.4735499
   3.4455988  73.9369309  22.1530460   2.9841141  76.6218440  26.5331136
   3.6113179  76.2395517  27.1468660   2.1269059  76.4032642  26.8986828
  13.3835249  87.0281415  28.1384871  13.9275153  87.6411373  27.6439826
  12.8022094  87.5860993  28.6551884  13.7327670  87.9511153  20.8979449
  12.7858006  87.8316504  20.8257776  14.0810444  87.0633651  20.9805710
   6.0927244  73.8405292  24.7217691   6.6161646  74.0867589  25.4844000
   5.8739577  74.6725327  24.3020828  14.3408226  88.5692428  18.1848674
  15.2654773  88.3635289  18.0473125  14.1723529  88.3208829  19.0938015
   7.2979789  74.7818987  22.4067361   6.9576609  73.9826800  22.8088041
   6.5918795  75.0820698  21.8344194   7.9496261  71.8668300  20.8594684
   8.7722330  71.3928778  20.7373575   8.1934324  72.6458783  21.3593371
   7.3331222  75.5489968  18.7167552   7.3192791  74.6531062  18.3799850
   8.0503650  75.5560632  19.3505838   9.1857353  75.9827308  20.7620680
   8.9275131  76.9044379  20.7605010   8.6542393  75.5857743  21.4521144
   9.6059309  72.1159259  17.1221842   9.6281005  72.1798592  16.1673822
  10.0227368  71.2763768  17.3162349  19.9842933  81.8514519  15.1601065
  20.4274079  81.1021844  14.7620188  19.1069443  81.8424655  14.7774797
   8.6790186  89.7678639  24.2984871   8.9877313  89.5227786  25.1707570
   9.4765668  89.9725278  23.8103741   6.2209198  75.9436346  28.1945055
   6.2697353  76.8198469  27.8122825   6.7631712  75.4013739  27.6216698
  16.7064043  86.4877469  27.4746192  15.9159587  86.4701608  26.9350692
  16.4697398  87.0265763  28.2295229  16.8261918  83.3369936  24.7878921
  16.8759923  83.1719943  25.7294444  16.7175842  82.4697195  24.3976802
  14.1165681  79.3200864  26.1038227  15.0175544  79.1807328  25.8122225
  14.1913655  79.4855318  27.0436405   8.4508486  76.6967718  24.9491414
   7.5811796  76.9901284  24.6774002   8.6867967  77.2808163  25.6698677
  18.3280115  85.7566877  25.0320942  18.0364924  86.1196858  25.8684403
  17.7152247  85.0433885  24.8534274  19.5275798  83.3219757  17.5523513
  20.3622689  83.7609561  17.7161073  19.6634926  82.8458410  16.7331758
  16.5767304  80.8799492  23.5001000  17.0521425  81.0727138  22.6919852
  15.6532869  80.9358677  23.2544384  11.1547520  72.9147335  22.4656834
  11.6729464  73.6508362  22.1403323  10.8002653  73.2211329  23.3003593
  11.4060114  69.3347618  17.9857731  11.6861868  68.6670807  18.6118157
  12.1910721  69.5276713  17.4732395  15.2768973  77.7565252  21.7329306
  16.2286395  77.8563349  21.7541530  15.1072423  76.9643520  22.2427390
  13.2983352  74.8420835  21.9188707  12.7033284  75.1225848  21.2235195
  13.0133049  75.3314736  22.6905448  17.7557050  80.9771371  20.8471606
  17.7233370  80.0387372  21.0331289  18.3657674  81.0555408  20.1137430
  17.9051539  77.7682415  20.8929889  17.3890587  76.9840872  20.7059818
  18.7891487  77.4401131  21.0576408  15.5662266  71.5123430  16.8525701
  15.3687087  71.2038519  17.7369033  16.1761971  72.2385069  16.9823631
  23.5733600  82.0387378  19.9877642  24.3036989  81.7772666  20.5485346
  22.9640546  81.3016100  20.0279710  21.6548897  80.1795241  20.5852094
  20.9282061  80.0451206  19.9768585  21.2396184  80.4872069  21.3908812
   9.4779074  83.8985171  28.3499467  10.3982083  84.0763770  28.5439513
   9.4428657  82.9541216  28.1979166   9.3945364  72.3154291  12.9797936
   8.5846092  71.9701375  13.3553182  10.0829781  72.0061834  13.5685548
  11.3235912  71.3932337  14.6022233  11.8766951  71.8127791  15.2612256
  11.5605999  70.4668085  14.6445189   7.3469012  77.3819411  30.3824997
   7.2465738  78.3313768  30.3137088   7.1290554  77.0537650  29.5101067
  14.7014719  73.5032862  14.1100897  14.1213389  74.1617667  13.7278949
  14.4350652  72.6810207  13.6988315  13.1518286  72.9037920  16.3122217
  13.6518064  73.0154455  15.5036536  13.7953894  72.5998973  16.9523026
   7.2100282  80.8116550  29.1990058   6.7267363  81.6116910  29.4053947
   7.2961221  80.8224495  28.2457502   3.7273001  83.2722201  23.8029290
   4.5465890  83.7666279  23.8264127   4.0009809  82.3554169  23.7746857
  13.4839597  75.6632953  13.1657245  12.5965453  75.9482603  12.9477440
  13.8993587  75.5026716  12.3184522  16.8354134  75.6879474  16.8811585
  17.6114524  76.1775926  17.1536201  16.1102268  76.1137528  17.3383454
  19.2726692  76.4007093  17.9385525  19.8671183  76.1602829  17.2278833
  19.3453276  75.6814224  18.5659061  17.2685427  76.9677221  14.2057655
  17.0122361  76.5673856  15.0365863  16.6438295  77.6821015  14.0807794
  21.5797765  79.7073294  16.7128946  21.0197323  79.7766483  17.4860508
  20.9741268  79.5314279  15.9928443  11.5061308  84.6741182  30.0013627
  12.3752467  84.8481834  29.6400262  11.0268059  85.4935599  29.8789357
  11.3163645  68.4643156  14.5091320  10.5496041  67.9101642  14.6548002
  11.7274350  68.5365024  15.3705471   3.3205407  74.7527952  28.5996501
   4.1836868  74.3964756  28.8099826   2.7470817  74.4141846  29.2871905
  23.1653783  96.3829808  19.4058902  23.8032193  96.2636555  18.7022242
  23.0474626  97.3310652  19.4646854  19.9743490  96.3357236  19.3420427
  19.6362001  96.2198301  18.4540962  20.8433258  95.9348401  19.3221433
  20.4563273  97.4892088  25.3006632  20.4451913  97.0944886  24.4287136
  20.6183912  96.7558160  25.8940404  17.1770534 100.2729199  24.2485816
  16.8860400 101.1774830  24.1332483  17.8127518 100.3145727  24.9629886
  18.1026741  97.6506048  20.8387176  18.6990313  97.4262070  20.1244139
  18.1601712  96.9090793  21.4412624  22.7195052  94.1081262  16.4812110
  23.5058141  93.6900685  16.1302527  22.9833756  95.0127354  16.6493758
  28.1203479  94.0456495  17.3845089  28.8528651  93.4755712  17.6182918
  27.3642835  93.6578095  17.8251594  25.6428899  87.7578069  21.8439697
  25.3112224  88.6273480  21.6200912  25.0474513  87.4414353  22.5233728
  22.1360419  99.9590615  21.2435610  21.8361142 100.8615654  21.1351417
  21.7911478  99.6922798  22.0956763  25.5357563  92.4773155  18.9233047
  24.6274440  92.4088564  18.6291808  25.4845159  92.9545100  19.7514873
  19.6098429  93.8962801  26.8667945  18.8331763  94.4556721  26.8570809
  20.2488992  94.3819584  27.3882815  27.4019209  90.6789594  20.7010921
  26.7593589  90.9722127  20.0550716  26.8974138  90.5642514  21.5064118
  17.8644801  96.7048254  26.4285912  18.6059485  97.2433298  26.1520735
  17.1581786  97.3314543  26.5857463  23.3400140  98.8477395  25.0258073
  23.7483496  98.4059805  24.2812705  22.6177402  98.2730022  25.2792266
  19.6931210  93.7850001  22.3991630  20.5392406  94.2089415  22.5426279
  19.6329848  93.1283626  23.0930193  23.6628955  99.4078585  18.7810362
  23.0337818  99.5724299  18.0786430  23.2754617  99.8220195  19.5521326
  27.5418187 100.3433023  16.1354726  26.8569225 100.7231924  15.5851759
  27.6262036 100.9528350  16.8686673  22.8430656  91.4454370  24.0572804
  22.5991588  92.1996430  23.5207079  23.1190586  91.8239717  24.8920051
  24.7969119  97.9892982  22.7350069  25.0086014  98.6324742  22.0584450
  24.7498867  97.1555299  22.2671999  22.3995348  90.6010803  19.6386641
  21.5379827  90.8992056  19.9303379  22.4257782  90.8181202  18.7067674
  16.6006165  93.8587902  27.2301222  15.9704825  94.5404183  27.4636618
  16.4942252  93.7470984  26.2854360  25.9114947 100.8664938  20.9072427
  26.7332390 100.4645125  20.6255108  25.9077349 100.7633172  21.8588542
  19.6771550 100.4148981  23.0633137  19.7415983 100.8769388  23.8991309
  18.9682474  99.7846346  23.1915447  34.0020940  97.2103686  17.2557398
  33.2484648  96.6411084  17.1001402  34.1368481  97.1766351  18.2028033
  15.8786907  88.1608668  29.5926473  15.4853853  87.6074867  30.2674117
  16.6953048  88.4719247  29.9832990  18.7954868  89.5766547  27.1846729
  19.5364582  90.1773700  27.1051192  19.0272791  88.8344185  26.6264772
  13.9396206  94.7622915  25.4624959  13.8249721  93.8608172  25.7632058
  13.0840724  95.0086611  25.1109775  21.0188044 102.7040655  27.0612459
  20.5751898 101.9177033  26.7433364  21.6805258 102.8919805  26.3956350
  23.1169282 102.9843455  25.0893861  23.0987757 103.8052336  24.5974130
  24.0389202 102.8597530  25.3144002  19.5742336 100.4987584  25.9317369
  20.1070673  99.7375872  25.7016677  19.0456417 100.2061236  26.6741524
  22.7412031  85.6047650  21.4611011  22.3976301  86.4949292  21.3850121
  23.1090994  85.4149308  20.5980596  20.2909425  90.4405962  15.0268684
  19.4351021  90.0512812  14.8474323  20.7036377  90.5197923  14.1668470
  21.8208572  87.9752305  19.4260244  21.3173367  87.9382441  18.6128049
  22.1139178  88.8845048  19.4856901  18.0651457  88.0591035  18.4326426
  18.9304454  87.8633844  18.0732315  18.1328966  87.8301387  19.3595783
  25.9187895  97.8222597  18.5603227  25.2611569  98.5121859  18.6483356
  26.7228294  98.2119029  18.9037214  24.7293354  96.1766970  16.6107169
  25.2425236  96.8096962  17.1128879  25.3794578  95.5768165  16.2450529
  17.9736444  87.1634492  14.5317862  17.3200857  86.8483509  13.9074477
  17.9316918  86.5410232  15.2577685  21.2074185  93.6516425  18.8565510
  20.2896746  93.8731372  18.6987198  21.6234328  93.7262736  17.9977217
  24.4388070  92.0864957  15.9686979  23.7010826  91.5742344  16.2997222
  24.6914843  91.6465339  15.1570256  24.5399697  84.8641209  16.5628749
  24.8458574  84.0038573  16.2754664  25.2652302  85.4558830  16.3627742
  22.3487348  94.2413887  23.6610212  22.7036736  94.4685360  24.5204678
  22.9959479  94.5732263  23.0387468  28.0785085  97.3632323  14.3659541
  27.9402984  97.5533919  13.4380731  27.7221304  98.1251705  14.8227592
  16.2427211  91.3490418  20.4456553  16.8826591  91.2079177  19.7479517
  15.4104742  91.0624931  20.0695155  28.1054465  99.4308850  19.3770813
  28.5390971  99.3384139  20.2253867  28.8186045  99.4066350  18.7390829
  21.8382360 103.0310944  20.9103913  21.8919382 103.6001880  21.6781629
  20.9697141 103.2012829  20.5457951  14.7180753  92.7328500  22.3928365
  15.3903806  92.5245862  21.7441014  13.8910540  92.5350586  21.9533597
  28.9670014  99.4732550  21.9103698  29.1605904 100.3778361  22.1562973
  28.8670632  99.0139969  22.7442283  20.6206325  89.3590441  24.4094026
  19.9734240  90.0580390  24.3158502  21.3907340  89.7926585  24.7770274
  24.0285123  99.6239293  27.4844579  23.8770629  99.3949845  26.5674663
  24.0189802 100.5809894  27.4975924  20.7970459  97.1971206  22.4690845
  21.7262519  97.3482365  22.2959813  20.3761489  97.2855226  21.6139492
  15.1208250  96.0071103  23.1530802  14.9828048  95.2751342  23.7542341
  16.0313174  95.9180003  22.8714990  17.7490551  95.7191062  22.6414482
  18.4590169  95.0784254  22.6001100  17.7059859  95.9703957  23.5640662
  25.7377330 102.6558416  25.5621061  25.6789876 101.9717636  24.8951644
  26.1396848 103.3977406  25.1101687  16.4619485  92.7056280  24.4610121
  15.9256842  92.2547019  25.1131717  15.8736193  92.8402189  23.7180585
  25.7394737 100.6197999  23.7935040  24.8521516 100.2823921  23.9161439
  26.3093288  99.8881031  24.0303806  12.1958606  91.8412288  21.5463116
  12.1116795  91.2337957  20.8113525  11.3741313  92.3321306  21.5472612
  22.3682320  90.3265851  16.9133311  22.8651020  89.5735814  16.5934381
  21.5969302  90.3630168  16.3476520  30.2212077  96.0306217  18.5551602
  30.2101954  96.9130932  18.1845535  29.3529457  95.6777768  18.3606139
  21.7294574 105.1786286  22.9154442  22.4422546 105.8133751  22.8430344
  21.2384602 105.2750152  22.0994444  18.9517289  92.4683234  16.6404995
  18.5815076  91.9154275  17.3285901  19.4476381  91.8641368  16.0879995
  26.8384652  94.9254858  15.0221768  27.3045104  95.7582849  14.9482071
  27.2892153  94.4599839  15.7267027  24.8101315  87.2935445  19.0612669
  23.8964395  87.5239672  19.2294876  25.2394416  87.3773889  19.9126702
  24.5807773  95.4825337  21.5612563  23.9279224  95.7301244  20.9065016
  24.9588153  94.6689475  21.2275041  20.6295346  96.2245148  28.0478601
  19.9535983  96.1239277  28.7180976  21.4522980  96.0684362  28.5114598
  14.3482622  89.8787225  22.8858101  14.4123949  90.7402056  22.4735499
  14.2849743  89.2661227  22.1530460  13.8234895  91.9510358  26.5331136
  14.4506934  91.5687435  27.1468660  12.9662814  91.7324560  26.8986828
  24.2229004 102.3573333  28.1384871  24.7668908 102.9703291  27.6439826
  23.6415848 102.9152911  28.6551884  24.5721425 103.2803071  20.8979449
  23.6251760 103.1608422  20.8257776  24.9204198 102.3925569  20.9805710
  16.9320998  89.1697210  24.7217691  17.4555400  89.4159506  25.4844000
  16.7133332  90.0017245  24.3020828  25.1801980 103.8984346  18.1848674
  26.1048528 103.6927207  18.0473125  25.0117283 103.6500747  19.0938015
  18.1373543  90.1110905  22.4067361  17.7970364  89.3118718  22.8088041
  17.4312550  90.4112616  21.8344194  18.7890015  87.1960217  20.8594684
  19.6116084  86.7220695  20.7373575  19.0328079  87.9750701  21.3593371
  18.1724977  90.8781886  18.7167552  18.1586546  89.9822979  18.3799850
  18.8897405  90.8852550  19.3505838  20.0251107  91.3119226  20.7620680
  19.7668885  92.2336297  20.7605010  19.4936148  90.9149661  21.4521144
  20.4453063  87.4451177  17.1221842  20.4674760  87.5090510  16.1673822
  20.8621122  86.6055685  17.3162349  30.8236687  97.1806436  15.1601065
  31.2667833  96.4313761  14.7620188  29.9463198  97.1716573  14.7774797
  11.5740278  95.5554579  24.5004481  10.8322014  95.7037214  25.0869111
  11.2533022  95.8162844  23.6371230  19.5183941 105.0970557  24.2984871
  19.8271067 104.8519704  25.1707570  20.3159423 105.3017195  23.8103741
  17.0602952  91.2728264  28.1945055  17.1091108  92.1490386  27.8122825
  17.6025466  90.7305657  27.6216698  27.5457798 101.8169387  27.4746192
  26.7553342 101.7993526  26.9350692  27.3091152 102.3557681  28.2295229
  27.6655673  98.6661853  24.7878921  27.7153678  98.5011861  25.7294444
  27.5569596  97.7989112  24.3976802  24.9559435  94.6492781  26.1038227
  25.8569298  94.5099246  25.8122225  25.0307410  94.8147236  27.0436405
  19.2902241  92.0259636  24.9491414  18.4205550  92.3193202  24.6774002
  19.5261721  92.6100081  25.6698677  29.1673870 101.0858795  25.0320942
  28.8758678 101.4488775  25.8684403  28.5546001 100.3725803  24.8534274
  30.3669552  98.6511675  17.5523513  31.2016444  99.0901479  17.7161073
  30.5028681  98.1750328  16.7331758  27.4161058  96.2091409  23.5001000
  27.8915180  96.4019056  22.6919852  26.4926623  96.2650595  23.2544384
  21.9941275  88.2439253  22.4656834  22.5123218  88.9800280  22.1403323
  21.6396407  88.5503246  23.3003593  22.2453869  84.6639535  17.9857731
  22.5255622  83.9962725  18.6118157  23.0304476  84.8568631  17.4732395
  26.1162727  93.0857169  21.7329306  27.0680150  93.1855267  21.7541530
  25.9466177  92.2935438  22.2427390  24.1377107  90.1712753  21.9188707
  23.5427039  90.4517765  21.2235195  23.8526803  90.6606654  22.6905448
  28.5950805  96.3063289  20.8471606  28.5627125  95.3679290  21.0331289
  29.2051428  96.3847326  20.1137430  28.7445293  93.0974333  20.8929889
  28.2284342  92.3132789  20.7059818  29.6285242  92.7693049  21.0576408
  26.4056020  86.8415348  16.8525701  26.2080841  86.5330436  17.7369033
  27.0155726  87.5676987  16.9823631  34.4127355  97.3679296  19.9877642
  35.1430743  97.1064584  20.5485346  33.8034300  96.6308018  20.0279710
  32.4942652  95.5087159  20.5852094  31.7675815  95.3743123  19.9768585
  32.0789939  95.8163987  21.3908812  20.3172828  99.2277088  28.3499467
  21.2375838  99.4055687  28.5439513  20.2822411  98.2833134  28.1979166
  20.2339119  87.6446208  12.9797936  19.4239847  87.2993293  13.3553182
  20.9223536  87.3353752  13.5685548  22.1629667  86.7224255  14.6022233
  22.7160705  87.1419708  15.2612256  22.3999753  85.7960003  14.6445189
  18.1862766  92.7111329  30.3824997  18.0859493  93.6605686  30.3137088
  17.9684308  92.3829568  29.5101067  25.5408474  88.8324780  14.1100897
  24.9607143  89.4909584  13.7278949  25.2744407  88.0102125  13.6988315
  23.9912040  88.2329838  16.3122217  24.4911819  88.3446372  15.5036536
  24.6347648  87.9290891  16.9523026  18.0494036  96.1408467  29.1990058
  17.5661118  96.9408828  29.4053947  18.1354975  96.1516412  28.2457502
  14.5666756  98.6014118  23.8029290  15.3859645  99.0958197  23.8264127
  14.8403563  97.6846086  23.7746857  24.3233352  90.9924871  13.1657245
  23.4359207  91.2774521  12.9477440  24.7387341  90.8318634  12.3184522
  27.6747888  91.0171392  16.8811585  28.4508278  91.5067844  17.1536201
  26.9496022  91.4429446  17.3383454  30.1120447  91.7299011  17.9385525
  30.7064938  91.4894747  17.2278833  30.1847030  91.0106141  18.5659061
  28.1079182  92.2969138  14.2057655  27.8516116  91.8965774  15.0365863
  27.4832050  93.0112932  14.0807794  32.4191519  95.0365212  16.7128946
  31.8591077  95.1058401  17.4860508  31.8135023  94.8606196  15.9928443
   9.8201670  92.9352252  24.5021487  10.4660534  92.4251206  24.9908712
   9.6118821  93.6720934  25.0764912  22.3455062 100.0033100  30.0013627
  23.2146222 100.1773752  29.6400262  21.8661814 100.8227516  29.8789357
  22.1557400  83.7935073  14.5091320  21.3889796  83.2393560  14.6548002
  22.5668105  83.8656942  15.3705471  14.1599161  90.0819869  28.5996501
  15.0230623  89.7256674  28.8099826  13.5864572  89.7433764  29.2871905
  33.5588806 109.4373179  16.4812110  34.3451896 109.0192603  16.1302527
  33.8227511 110.3419272  16.6493758  38.9597234 109.3748413  17.3845089
  39.6922405 108.8047629  17.6182918  38.2036589 108.9870013  17.8251594
  36.4822654 103.0869987  21.8439697  36.1505979 103.9565398  21.6200912
  35.8868267 102.7706271  22.5233728  36.3751317 107.8065073  18.9233047
  35.4668195 107.7380481  18.6291808  36.3238913 108.2837018  19.7514873
  38.2412964 106.0081511  20.7010921  37.5987344 106.3014044  20.0550716
  37.7367892 105.8934432  21.5064118  30.5324965 109.1141919  22.3991630
  31.3786160 109.5381333  22.5426279  30.4723603 108.4575543  23.0930193
  33.6824410 106.7746287  24.0572804  33.4385342 107.5288348  23.5207079
  33.9584341 107.1531635  24.8920051  33.2389102 105.9302720  19.6386641
  32.3773581 106.2283974  19.9303379  33.2651537 106.1473119  18.7067674
  44.8414694 112.5395604  17.2557398  44.0878402 111.9703002  17.1001402
  44.9762235 112.5058268  18.2028033  26.7180662 103.4900586  29.5926473
  26.3247607 102.9366784  30.2674117  27.5346802 103.8011164  29.9832990
  29.6348623 104.9058465  27.1846729  30.3758336 105.5065618  27.1051192
  29.8666546 104.1636103  26.6264772  33.5805786 100.9339568  21.4611011
  33.2370055 101.8241210  21.3850121  33.9484748 100.7441226  20.5980596
  31.1303179 105.7697880  15.0268684  30.2744776 105.3804730  14.8474323
  31.5430131 105.8489841  14.1668470  32.6602326 103.3044223  19.4260244
  32.1567122 103.2674358  18.6128049  32.9532933 104.2136966  19.4856901
  28.9045212 103.3882953  18.4326426  29.7698209 103.1925761  18.0732315
  28.9722721 103.1593305  19.3595783  28.8130199 102.4926410  14.5317862
  28.1594611 102.1775427  13.9074477  28.7710673 101.8702150  15.2577685
  32.0467939 108.9808343  18.8565510  31.1290501 109.2023290  18.6987198
  32.4628083 109.0554654  17.9977217  35.2781824 107.4156875  15.9686979
  34.5404581 106.9034261  16.2997222  35.5308598 106.9757257  15.1570256
  35.3793451 100.1933127  16.5628749  35.6852328  99.3330490  16.2754664
  36.1046056 100.7850747  16.3627742  33.1881103 109.5705804  23.6610212
  33.5430490 109.7977277  24.5204678  33.8353234 109.9024181  23.0387468
  27.0820966 106.6782335  20.4456553  27.7220345 106.5371094  19.7479517
  26.2498496 106.3916849  20.0695155  31.4600080 104.6882358  24.4094026
  30.8127995 105.3872308  24.3158502  32.2301095 105.1218502  24.7770274
  27.3013239 108.0348198  24.4610121  26.7650596 107.5838936  25.1131717
  26.7129948 108.1694107  23.7180585  33.2076075 105.6557769  16.9133311
  33.7044774 104.9027731  16.5934381  32.4363056 105.6922086  16.3476520
  41.0605832 111.3598134  18.5551602  41.0495708 112.2422850  18.1845535
  40.1923211 111.0069685  18.3606139  29.7911043 107.7975152  16.6404995
  29.4208831 107.2446192  17.3285901  30.2870136 107.1933285  16.0879995
  37.6778407 110.2546775  15.0221768  38.1438859 111.0874767  14.9482071
  38.1285907 109.7891757  15.7267027  35.6495069 102.6227362  19.0612669
  34.7358149 102.8531589  19.2294876  36.0788171 102.7065807  19.9126702
  35.4201528 110.8117254  21.5612563  34.7672978 111.0593162  20.9065016
  35.7981908 109.9981393  21.2275041  25.1876377 105.2079143  22.8858101
  25.2517703 106.0693974  22.4735499  25.1243497 104.5953144  22.1530460
  24.6628649 107.2802275  26.5331136  25.2900688 106.8979353  27.1468660
  23.8056568 107.0616477  26.8986828  27.7714753 104.4989127  24.7217691
  28.2949155 104.7451424  25.4844000  27.5527086 105.3309162  24.3020828
  28.9767298 105.4402823  22.4067361  28.6364118 104.6410636  22.8088041
  28.2706304 105.7404533  21.8344194  29.6283770 102.5252135  20.8594684
  30.4509839 102.0512613  20.7373575  29.8721833 103.3042619  21.3593371
  29.0118731 106.2073804  18.7167552  28.9980300 105.3114897  18.3799850
  29.7291159 106.2144467  19.3505838  30.8644862 106.6411144  20.7620680
  30.6062640 107.5628214  20.7605010  30.3329902 106.2441578  21.4521144
  31.2846818 102.7743094  17.1221842  31.3068514 102.8382427  16.1673822
  31.7014877 101.9347603  17.3162349  41.6630442 112.5098354  15.1601065
  42.1061588 111.7605679  14.7620188  40.7856952 112.5008490  14.7774797
  27.8996707 106.6020181  28.1945055  27.9484862 107.4782304  27.8122825
  28.4419221 106.0597574  27.6216698  35.7953190 109.9784699  26.1038227
  36.6963053 109.8391164  25.8122225  35.8701164 110.1439154  27.0436405
  30.1295995 107.3551554  24.9491414  29.2599305 107.6485120  24.6774002
  30.3655476 107.9391999  25.6698677  38.2554813 111.5383327  23.5001000
  38.7308934 111.7310973  22.6919852  37.3320378 111.5942513  23.2544384
  32.8335029 103.5731171  22.4656834  33.3516973 104.3092198  22.1403323
  32.4790162 103.8795164  23.3003593  33.0847623  99.9931453  17.9857731
  33.3649377  99.3254642  18.6118157  33.8698230 100.1860549  17.4732395
  36.9556482 108.4149087  21.7329306  37.9073904 108.5147185  21.7541530
  36.7859932 107.6227356  22.2427390  34.9770861 105.5004670  21.9188707
  34.3820793 105.7809683  21.2235195  34.6920558 105.9898571  22.6905448
  39.4344559 111.6355207  20.8471606  39.4020879 110.6971208  21.0331289
  40.0445183 111.7139244  20.1137430  39.5839048 108.4266250  20.8929889
  39.0678096 107.6424707  20.7059818  40.4678996 108.0984967  21.0576408
  37.2449775 102.1707266  16.8525701  37.0474596 101.8622354  17.7369033
  37.8549480 102.8968905  16.9823631  45.2521109 112.6971214  19.9877642
  45.9824498 112.4356502  20.5485346  44.6428055 111.9599936  20.0279710
  43.3336406 110.8379076  20.5852094  42.6069570 110.7035041  19.9768585
  42.9183693 111.1455905  21.3908812  31.0732873 102.9738126  12.9797936
  30.2633601 102.6285211  13.3553182  31.7617290 102.6645670  13.5685548
  33.0023421 102.0516173  14.6022233  33.5554460 102.4711626  15.2612256
  33.2393508 101.1251921  14.6445189  29.0256521 108.0403246  30.3824997
  28.9253247 108.9897603  30.3137088  28.8078063 107.7121485  29.5101067
  36.3802228 104.1616698  14.1100897  35.8000897 104.8201502  13.7278949
  36.1138161 103.3394042  13.6988315  34.8305795 103.5621756  16.3122217
  35.3305573 103.6738290  15.5036536  35.4741403 103.2582808  16.9523026
  35.1627106 106.3216788  13.1657245  34.2752961 106.6066439  12.9477440
  35.5781096 106.1610552  12.3184522  38.5141643 106.3463309  16.8811585
  39.2902033 106.8359762  17.1536201  37.7889777 106.7721363  17.3383454
  40.9514201 107.0590928  17.9385525  41.5458692 106.8186664  17.2278833
  41.0240785 106.3398059  18.5659061  38.9472936 107.6261056  14.2057655
  38.6909870 107.2257692  15.0365863  38.3225804 108.3404850  14.0807794
  43.2585274 110.3657129  16.7128946  42.6984832 110.4350319  17.4860508
  42.6528777 110.1898114  15.9928443  32.9951154  99.1226991  14.5091320
  32.2283550  98.5685478  14.6548002  33.4061859  99.1948860  15.3705471
  24.9992915 105.4111787  28.5996501  25.8624377 105.0548592  28.8099826
  24.4258326 105.0725682  29.2871905   9.6169519  59.1662293  12.0251939
   9.6058160  58.7715091  11.1532443   9.7790159  58.4328365  12.6185710
   6.3376781  61.9499404  10.9731123   6.0466647  62.8545035  10.8577789
   6.9733765  61.9915932  11.6875192  11.2966666  61.6360820   7.9680917
  10.9967389  62.5385859   7.8596724  10.9517725  61.3693003   8.8202069
   8.7704675  55.5733006  13.5913251   7.9938009  56.1326926  13.5816116
   9.4095238  56.0589789  14.1128121   7.0251048  58.3818459  13.1531218
   7.7665732  58.9203503  12.8766042   6.3188033  59.0084748  13.3102770
  12.5006387  60.5247600  11.7503380  12.9089743  60.0830010  11.0058012
  11.7783649  59.9500227  12.0037573   8.8537457  55.4620206   9.1236937
   9.6998652  55.8859620   9.2671586   8.7936095  54.8053831   9.8175500
  12.8235202  61.0848790   5.5055669  12.1944064  61.2494504   4.8031736
  12.4360864  61.4990400   6.2766633  16.7024434  62.0203228   2.8600032
  16.0175472  62.4002129   2.3097066  16.7868283  62.6298555   3.5931980
  12.0036903  53.1224575  10.7818110  11.7597834  53.8766635  10.2452386
  12.2796833  53.5009922  11.6165357  13.9575365  59.6663187   9.4595376
  14.1692261  60.3094947   8.7829757  13.9105114  58.8325504   8.9917306
   5.7612411  55.5358107  13.9546528   5.1311072  56.2174388  14.1881925
   5.6548499  55.4241189  13.0099666  15.0721193  62.5435142   7.6317733
  15.8938637  62.1415330   7.3500415  15.0683596  62.4403377   8.5833849
   8.8377797  62.0919186   9.7878444   8.9022229  62.5539593  10.6236616
   8.1288721  61.4616551   9.9160754  23.1627186  58.8873891   3.9802705
  22.4090895  58.3181289   3.8246709  23.2974728  58.8536555   4.9273339
   5.0393154  49.8378873  16.3171779   4.6460100  49.2845072  16.9919423
   5.8559294  50.1489452  16.7078297   7.9561115  51.2536752  13.9092036
   8.6970828  51.8543905  13.8296498   8.1879038  50.5114390  13.3510078
   3.1002453  56.4393119  12.1870265   2.9855968  55.5378377  12.4877364
   2.2446971  56.6856816  11.8355082  10.1794291  64.3810860  13.7857766
   9.7358145  63.5947238  13.4678671  10.8411504  64.5690010  13.1201657
  12.2775529  64.6613660  11.8139167  12.2594004  65.4822541  11.3219437
  13.1995449  64.5367735  12.0389309   8.7348583  62.1757789  12.6562676
   9.2676920  61.4146077  12.4261984   8.2062664  61.8831441  13.3986830
  15.0794142  59.4992802   5.2848534  14.4217816  60.1892064   5.3728663
  15.8834541  59.8889234   5.6282520  11.5093595  55.9184092  10.3855519
  11.8642983  56.1455565  11.2449985  12.1565726  56.2502468   9.7632774
  17.2660712  61.1079054   6.1016120  17.6997218  61.0154344   6.9499174
  17.9792292  61.0836555   5.4636136  10.9988606  64.7081149   7.6349220
  11.0525629  65.2772085   8.4026936  10.1303388  64.8783034   7.2703257
  18.1276261  61.1502755   8.6349005  18.3212151  62.0548566   8.8808280
  18.0276879  60.6910174   9.4687590   9.7812572  51.0360646  11.1339332
   9.1340487  51.7350595  11.0403809  10.5513587  51.4696790  11.5015580
  13.1891370  61.3009498  14.2089886  13.0376876  61.0720050  13.2919969
  13.1796049  62.2580099  14.2221231   9.9576706  58.8741411   9.1936152
  10.8868766  59.0252570   9.0205119   9.5367736  58.9625431   8.3384798
   4.2814497  57.6841308   9.8776109   4.1434295  56.9521547  10.4787648
   5.1919421  57.5950208   9.5960296   6.9096798  57.3961267   9.3659788
   7.6196416  56.7554459   9.3246407   6.8666106  57.6474162  10.2885969
  14.8983576  64.3328620  12.2866367  14.8396123  63.6487841  11.6196950
  15.3003095  65.0747610  11.8346993  14.9000984  62.2968204  10.5180347
  14.0127762  61.9594126  10.6406746  15.4699535  61.5651236  10.7549112
  19.3818324  57.7076422   5.2796909  19.3708200  58.5901137   4.9090842
  18.5135704  57.3547973   5.0851446  10.8900821  66.8556491   9.6399749
  11.6028793  67.4903956   9.5675650  10.3990849  66.9520357   8.8239751
  13.7414020  57.1595542   8.2857870  13.0885470  57.4071449   7.6310323
  14.1194400  56.3459680   7.9520347   9.7901593  57.9015353  14.7723907
   9.1142230  57.8009482  15.4426282  10.6129227  57.7454566  15.2359904
   2.9841142  53.6280563  13.2576442   3.6113181  53.2457640  13.8713966
   2.1269061  53.4094764  13.6232135  13.3835250  64.0343538  14.8630178
  13.9275154  64.6473496  14.3685132  12.8022095  64.5923116  15.3797191
  13.7327672  64.9573276   7.6224755  12.7858007  64.8378627   7.5503082
  14.0810445  64.0695774   7.7051017  14.3408227  65.5754551   4.9093980
  15.2654774  65.3697412   4.7718432  14.1723530  65.3270952   5.8183322
   8.6790187  66.7740762  11.0230178   8.9877314  66.5289909  11.8952877
   9.4765669  66.9787400  10.5349048   6.2209199  52.9498468  14.9190362
   6.2697354  53.8260591  14.5368131   6.7631713  52.4075862  14.3462005
  16.7064045  63.4939592  14.1991499  15.9159588  63.4763731  13.6595998
  16.4697399  64.0327885  14.9540535  16.8261920  60.3432058  11.5124227
  16.8759925  60.1782066  12.4539750  16.7175843  59.4759317  11.1222108
  14.1165682  56.3262986  12.8283534  15.0175545  56.1869451  12.5367532
  14.1913657  56.4917441  13.7681712   8.4508487  53.7029841  11.6736720
   7.5811797  53.9963407  11.4019309   8.6867968  54.2870286  12.3943984
  18.3280117  62.7629000  11.7566249  18.0364925  63.1258980  12.5929710
  17.7152248  62.0496008  11.5779581  19.5275799  60.3281879   4.2768819
  20.3622690  60.7671683   4.4406380  19.6634928  59.8520533   3.4577065
  16.5767305  57.8861614  10.2246307  17.0521426  58.0789261   9.4165158
  15.6532870  57.9420800   9.9789691  15.2768974  54.7627374   8.4574613
  16.2286397  54.8625472   8.4786837  15.1072424  53.9705643   8.9672697
  17.7557052  57.9833494   7.5716912  17.7233372  57.0449495   7.7576596
  18.3657675  58.0617531   6.8382737  17.9051540  54.7744537   7.6175195
  17.3890589  53.9902994   7.4305124  18.7891489  54.4463254   7.7821715
  23.5733601  59.0449501   6.7122949  24.3036990  58.7834789   7.2730652
  22.9640547  58.3078223   6.7525017  21.6548899  57.1857363   7.3097400
  20.9282062  57.0513328   6.7013892  21.2396185  57.4934192   8.1154118
   9.4779075  60.9047293  15.0744773  10.3982084  61.0825892  15.2684820
   9.4428658  59.9603339  14.9224472   7.3469013  54.3881534  17.1070303
   7.2465740  55.3375891  17.0382394   7.1290555  54.0599772  16.2346373
   7.2100283  57.8178672  15.9235365   6.7267365  58.6179033  16.1299254
   7.2961222  57.8286617  14.9702809   3.7273003  60.2784323  10.5274596
   4.5465892  60.7728402  10.5509434   4.0009810  59.3616291  10.4992164
  11.5061309  61.6803305  16.7258934  12.3752469  61.8543957  16.3645569
  11.0268060  62.4997721  16.6034663   3.3205408  51.7590074  15.3241808
   4.1836869  51.4026879  15.5345132   2.7470818  51.4203969  16.0117212
  23.1653785  73.3891930   6.1304209  23.8032195  73.2698678   5.4267549
  23.0474628  74.3372774   6.1892161  19.9743491  73.3419359   6.0665733
  19.6362003  73.2260423   5.1786268  20.8433259  72.9410524   6.0466740
  20.4563274  74.4954210  12.0251939  20.4451915  74.1007009  11.1532443
  20.6183913  73.7620283  12.6185710  17.1770535  77.2791322  10.9731123
  16.8860401  78.1836953  10.8577789  17.8127519  77.3207850  11.6875192
  18.1026742  74.6568171   7.5632483  18.6990314  74.4324193   6.8489445
  18.1601713  73.9152916   8.1657930  22.7195053  71.1143384   3.2057417
  23.5058142  70.6962807   2.8547834  22.9833758  72.0189476   3.3739065
  28.1203480  71.0518618   4.1090395  28.8528652  70.4817834   4.3428225
  27.3642836  70.6640218   4.5496901  25.6428901  64.7640192   8.5685004
  25.3112225  65.6335603   8.3446219  25.0474514  64.4476476   9.2479034
  22.1360420  76.9652738   7.9680917  21.8361143  77.8677776   7.8596724
  21.7911480  76.6984921   8.8202069  25.5357564  69.4835278   5.6478354
  24.6274441  69.4150686   5.3537115  25.4845160  69.9607223   6.4760179
  19.6098430  70.9024923  13.5913251  18.8331764  71.4618844  13.5816116
  20.2488993  71.3881706  14.1128121  27.4019210  67.6851716   7.4256228
  26.7593591  67.9784249   6.7796022  26.8974139  67.5704637   8.2309424
  17.8644802  73.7110377  13.1531218  18.6059486  74.2495421  12.8766042
  17.1581788  74.3376665  13.3102770  23.3400142  75.8539517  11.7503380
  23.7483498  75.4121928  11.0058012  22.6177403  75.2792145  12.0037573
  19.6931212  70.7912124   9.1236937  20.5392407  71.2151538   9.2671586
  19.6329849  70.1345748   9.8175500  23.6628956  76.4140708   5.5055669
  23.0337819  76.5786422   4.8031736  23.2754618  76.8282317   6.2766633
  27.5418188  77.3495146   2.8600032  26.8569226  77.7294047   2.3097066
  27.6262038  77.9590472   3.5931980  22.8430657  68.4516492  10.7818110
  22.5991589  69.2058553  10.2452386  23.1190588  68.8301840  11.6165357
  24.7969120  74.9955105   9.4595376  25.0086015  75.6386865   8.7829757
  24.7498868  74.1617421   8.9917306  22.3995349  67.6072925   6.3631948
  21.5379828  67.9054179   6.6548686  22.4257783  67.8243324   5.4312981
  16.6006166  70.8650025  13.9546528  15.9704826  71.5466306  14.1881925
  16.4942254  70.7533107  13.0099666  25.9114948  77.8727060   7.6317733
  26.7332392  77.4707247   7.3500415  25.9077351  77.7695294   8.5833849
  19.6771551  77.4211103   9.7878444  19.7415984  77.8831511  10.6236616
  18.9682475  76.7908468   9.9160754  34.0020941  74.2165809   3.9802705
  33.2484649  73.6473207   3.8246709  34.1368482  74.1828473   4.9273339
  15.8786909  65.1670791  16.3171779  15.4853854  64.6136989  16.9919423
  16.6953049  65.4781369  16.7078297  18.7954870  66.5828670  13.9092036
  19.5364583  67.1835823  13.8296498  19.0272792  65.8406308  13.3510078
  13.9396208  71.7685037  12.1870265  13.8249723  70.8670294  12.4877364
  13.0840725  72.0148734  11.8355082  21.0188045  79.7102777  13.7857766
  20.5751899  78.9239156  13.4678671  21.6805259  79.8981928  13.1201657
  23.1169283  79.9905577  11.8139167  23.0987759  80.8114458  11.3219437
  24.0389203  79.8659653  12.0389309  19.5742338  77.5049707  12.6562676
  20.1070674  76.7437995  12.4261984  19.0456419  77.2123359  13.3986830
  22.7412032  62.6109773   8.1856317  22.3976302  63.5011414   8.1095428
  23.1090995  62.4211430   7.3225902  20.2909426  67.4468085   1.7513991
  19.4351023  67.0574935   1.5719630  20.7036378  67.5260045   0.8913776
  21.8208573  64.9814428   6.1505551  21.3173368  64.9444563   5.3373356
  22.1139180  65.8907171   6.2102207  18.0651459  65.0653158   5.1571732
  18.9304456  64.8695966   4.7977622  18.1328968  64.8363509   6.0841089
  25.9187896  74.8284720   5.2848534  25.2611571  75.5183981   5.3728663
  26.7228295  75.2181152   5.6282520  24.7293355  73.1829092   3.3352476
  25.2425237  73.8159084   3.8374186  25.3794579  72.5830288   2.9695836
  17.9736446  64.1696614   1.2563169  17.3200858  63.8545632   0.6319783
  17.9316920  63.5472355   1.9822992  21.2074186  70.6578548   5.5810816
  20.2896747  70.8793495   5.4232504  21.6234330  70.7324859   4.7222524
  24.4388071  69.0927080   2.6932286  23.7010828  68.5804466   3.0242528
  24.6914844  68.6527462   1.8815563  24.5399698  61.8703332   3.2874055
  24.8458575  61.0100695   2.9999970  25.2652303  62.4620952   3.0873049
  22.3487349  71.2476009  10.3855519  22.7036737  71.4747482  11.2449985
  22.9959481  71.5794386   9.7632774  28.0785086  74.3694445   1.0904848
  27.9402985  74.5596041   0.1626037  27.7221305  75.1313828   1.5472899
  16.2427213  68.3552540   7.1701860  16.8826592  68.2141299   6.4724823
  15.4104743  68.0687054   6.7940462  28.1054466  76.4370972   6.1016120
  28.5390973  76.3446261   6.9499174  28.8186047  76.4128473   5.4636136
  21.8382361  80.0373066   7.6349220  21.8919383  80.6064003   8.4026936
  20.9697142  80.2074951   7.2703257  14.7180754  69.7390622   9.1173671
  15.3903808  69.5307985   8.4686320  13.8910541  69.5412708   8.6778904
  28.9670016  76.4794673   8.6349005  29.1605906  77.3840483   8.8808280
  28.8670634  76.0202092   9.4687590  20.6206326  66.3652563  11.1339332
  19.9734241  67.0642513  11.0403809  21.3907342  66.7988707  11.5015580
  24.0285124  76.6301416  14.2089886  23.8770631  76.4011967  13.2919969
  24.0189804  77.5872017  14.2221231  20.7970461  74.2033328   9.1936152
  21.7262521  74.3544488   9.0205119  20.3761491  74.2917349   8.3384798
  15.1208252  73.0133225   9.8776109  14.9828050  72.2813464  10.4787648
  16.0313175  72.9242126   9.5960296  17.7490552  72.7253185   9.3659788
  18.4590171  72.0846377   9.3246407  17.7059860  72.9766080  10.2885969
  25.7377331  79.6620538  12.2866367  25.6789877  78.9779758  11.6196950
  26.1396849  80.4039528  11.8346993  16.4619486  69.7118403  11.1855428
  15.9256843  69.2609141  11.8377024  15.8736195  69.8464311  10.4425892
  25.7394738  77.6260122  10.5180347  24.8521517  77.2886044  10.6406746
  26.3093289  76.8943153  10.7549112  12.1958607  68.8474410   8.2708422
  12.1116796  68.2400080   7.5358832  11.3741314  69.3383429   8.2717918
  22.3682321  67.3327974   3.6378617  22.8651021  66.5797936   3.3179687
  21.5969303  67.3692291   3.0721827  30.2212079  73.0368339   5.2796909
  30.2101955  73.9193055   4.9090842  29.3529458  72.6839890   5.0851446
  21.7294575  82.1848408   9.6399749  22.4422547  82.8195873   9.5675650
  21.2384604  82.2812274   8.8239751  18.9517290  69.4745357   3.3650302
  18.5815078  68.9216397   4.0531207  19.4476383  68.8703490   2.8125302
  26.8384653  71.9316980   1.7467075  27.3045106  72.7644972   1.6727377
  27.2892154  71.4661962   2.4512333  24.8101316  64.2997567   5.7857976
  23.8964396  64.5301794   5.9540183  25.2394418  64.3836011   6.6372008
  24.5807775  72.4887459   8.2857870  23.9279225  72.7363367   7.6310323
  24.9588154  71.6751598   7.9520347  20.6295348  73.2307270  14.7723907
  19.9535985  73.1301400  15.4426282  21.4522982  73.0746484  15.2359904
  14.3482624  66.8849348   9.6103408  14.4123950  67.7464179   9.1980806
  14.2849744  66.2723349   8.8775766  13.8234896  68.9572480  13.2576442
  14.4506935  68.5749558  13.8713966  12.9662815  68.7386682  13.6232135
  24.2229005  79.3635455  14.8630178  24.7668909  79.9765414  14.3685132
  23.6415850  79.9215034  15.3797191  24.5721426  80.2865193   7.6224755
  23.6251762  80.1670545   7.5503082  24.9204199  79.3987691   7.7051017
  16.9321000  66.1759332  11.4462997  17.4555401  66.4221629  12.2089307
  16.7133333  67.0079367  11.0266135  25.1801981  80.9046468   4.9093980
  26.1048529  80.6989330   4.7718432  25.0117285  80.6562870   5.8183322
  18.1373545  67.1173027   9.1312668  17.7970365  66.3180841   9.5333348
  17.4312551  67.4174738   8.5589501  18.7890016  64.2022340   7.5839991
  19.6116086  63.7282818   7.4618881  19.0328080  64.9812824   8.0838677
  18.1724978  67.8844009   5.4412859  18.1586547  66.9885102   5.1045157
  18.8897406  67.8914672   6.0751145  20.0251109  68.3181349   7.4865986
  19.7668887  69.2398419   7.4850317  19.4936149  67.9211783   8.1766451
  20.4453064  64.4513299   3.8467149  20.4674761  64.5152632   2.8919129
  20.8621123  63.6117808   4.0407655  30.8236689  74.1868559   1.8846372
  31.2667835  73.4375884   1.4865495  29.9463199  74.1778695   1.5020104
  11.5740279  72.5616701  11.2249788  10.8322015  72.7099337  11.8114418
  11.2533023  72.8224967  10.3616537  19.5183942  82.1032679  11.0230178
  19.8271068  81.8581826  11.8952877  20.3159424  82.3079318  10.5349048
  17.0602954  68.2790386  14.9190362  17.1091109  69.1552509  14.5368131
  17.6025468  67.7367779  14.3462005  27.5457799  78.8231509  14.1991499
  26.7553343  78.8055648  13.6595998  27.3091154  79.3619803  14.9540535
  27.6655674  75.6723976  11.5124227  27.7153679  75.5073983  12.4539750
  27.5569598  74.8051235  11.1222108  24.9559437  71.6554904  12.8283534
  25.8569299  71.5161369  12.5367532  25.0307411  71.8209359  13.7681712
  19.2902242  69.0321759  11.6736720  18.4205551  69.3255325  11.4019309
  19.5261722  69.6162204  12.3943984  29.1673871  78.0920917  11.7566249
  28.8758679  78.4550898  12.5929710  28.5546002  77.3787926  11.5779581
  30.3669553  75.6573797   4.2768819  31.2016445  76.0963601   4.4406380
  30.5028682  75.1812450   3.4577065  27.4161059  73.2153532  10.2246307
  27.8915181  73.4081178   9.4165158  26.4926625  73.2712718   9.9789691
  21.9941276  65.2501376   9.1902141  22.5123220  65.9862402   8.8648629
  21.6396409  65.5565369  10.0248900  22.2453870  61.6701658   4.7103037
  22.5255624  61.0024847   5.3363464  23.0304477  61.8630754   4.1977701
  26.1162728  70.0919292   8.4574613  27.0680151  70.1917390   8.4786837
  25.9466179  69.2997561   8.9672697  24.1377108  67.1774875   8.6434013
  23.5427040  67.4579888   7.9480502  23.8526804  67.6668776   9.4150755
  28.5950806  73.3125412   7.5716912  28.5627126  72.3741412   7.7576596
  29.2051430  73.3909448   6.8382737  28.7445295  70.1036455   7.6175195
  28.2284343  69.3194912   7.4305124  29.6285243  69.7755172   7.7821715
  26.4056021  63.8477471   3.5771008  26.2080843  63.5392559   4.4614340
  27.0155727  64.5739110   3.7068938  34.4127356  74.3741419   6.7122949
  35.1430744  74.1126707   7.2730652  33.8034301  73.6370141   6.7525017
  32.4942653  72.5149281   7.3097400  31.7675817  72.3805246   6.7013892
  32.0789940  72.8226110   8.1154118  20.3172829  76.2339211  15.0744773
  21.2375839  76.4117810  15.2684820  20.2822413  75.2895256  14.9224472
  20.2339120  64.6508331  -0.2956757  19.4239848  64.3055416   0.0798489
  20.9223537  64.3415875   0.2930854  22.1629668  63.7286378   1.3267539
  22.7160707  64.1481831   1.9857562  22.3999754  62.8022126   1.3690495
  18.1862767  69.7173451  17.1070303  18.0859494  70.6667808  17.0382394
  17.9684309  69.3891690  16.2346373  25.5408475  65.8386903   0.8346204
  24.9607144  66.4971707   0.4524256  25.2744408  65.0164247   0.4233621
  23.9912042  65.2391960   3.0367524  24.4911820  65.3508495   2.2281843
  24.6347649  64.9353013   3.6768332  18.0494037  73.1470590  15.9235365
  17.5661119  73.9470950  16.1299254  18.1354976  73.1578535  14.9702809
  14.5666757  75.6076241  10.5274596  15.3859646  76.1020320  10.5509434
  14.8403565  74.6908209  10.4992164  24.3233353  67.9986993  -0.1097448
  23.4359208  68.2836644  -0.3277253  24.7387342  67.8380757  -0.9570171
  27.6747889  68.0233514   3.6056891  28.4508279  68.5129967   3.8781508
  26.9496024  68.4491568   4.0628761  30.1120448  68.7361133   4.6630832
  30.7064939  68.4956869   3.9524140  30.1847032  68.0168264   5.2904368
  28.1079183  69.3031261   0.9302962  27.8516117  68.9027897   1.7611169
  27.4832051  70.0175055   0.8053101  32.4191521  72.0427334   3.4374253
  31.8591079  72.1120524   4.2105815  31.8135024  71.8668319   2.7173749
   9.8201671  69.9414375  11.2266793  10.4660535  69.4313329  11.7154019
   9.6118822  70.6783056  11.8010219  22.3455063  77.0095222  16.7258934
  23.2146223  77.1835874  16.3645569  21.8661815  77.8289639  16.6034663
  22.1557401  60.7997196   1.2336626  21.3889797  60.2455683   1.3793309
  22.5668106  60.8719065   2.0950778  14.1599162  67.0881992  15.3241808
  15.0230624  66.7318797  15.5345132  13.5864573  66.7495887  16.0117212
  34.0047539  88.7183848   6.1304209  34.6425949  88.5990595   5.4267549
  33.8868382  89.6664692   6.1892161  30.8137245  88.6711276   6.0665733
  30.4755757  88.5552341   5.1786268  31.6827014  88.2702441   6.0466740
  31.2957028  89.8246128  12.0251939  31.2845669  89.4298926  11.1532443
  31.4577668  89.0912201  12.6185710  28.0164290  92.6083240  10.9731123
  27.7254156  93.5128871  10.8577789  28.6521274  92.6499767  11.6875192
  28.9420496  89.9860088   7.5632483  29.5384069  89.7616111   6.8489445
  28.9995468  89.2444834   8.1657930  33.5588808  86.4435302   3.2057417
  34.3451897  86.0254725   2.8547834  33.8227512  87.3481394   3.3739065
  38.9597235  86.3810535   4.1090395  39.6922407  85.8109752   4.3428225
  38.2036591  85.9932136   4.5496901  36.4822655  80.0932109   8.5685004
  36.1505980  80.9627520   8.3446219  35.8868269  79.7768393   9.2479034
  32.9754175  92.2944655   7.9680917  32.6754898  93.1969694   7.8596724
  32.6305234  92.0276838   8.8202069  36.3751318  84.8127195   5.6478354
  35.4668196  84.7442604   5.3537115  36.3238914  85.2899140   6.4760179
  30.4492184  86.2316841  13.5913251  29.6725518  86.7910761  13.5816116
  31.0882747  86.7173624  14.1128121  38.2412965  83.0143634   7.4256228
  37.5987345  83.3076167   6.7796022  37.7367893  82.8996554   8.2309424
  28.7038557  89.0402294  13.1531218  29.4453241  89.5787338  12.8766042
  27.9975542  89.6668583  13.3102770  34.1793896  91.1831435  11.7503380
  34.5877252  90.7413845  11.0058012  33.4571158  90.6084062  12.0037573
  30.5324966  86.1204042   9.1236937  31.3786161  86.5443455   9.2671586
  30.4723604  85.4637666   9.8175500  34.5022711  91.7432625   5.5055669
  33.8731573  91.9078340   4.8031736  34.1148373  92.1574235   6.2766633
  38.3811943  92.6787063   2.8600032  37.6962981  93.0585965   2.3097066
  38.4655792  93.2882390   3.5931980  33.6824412  83.7808410  10.7818110
  33.4385343  84.5350471  10.2452386  33.9584342  84.1593758  11.6165357
  35.6362874  90.3247022   9.4595376  35.8479770  90.9678782   8.7829757
  35.5892623  89.4909339   8.9917306  33.2389103  82.9364843   6.3631948
  32.3773582  83.2346097   6.6548686  33.2651538  83.1535242   5.4312981
  27.4399920  86.1941943  13.9546528  26.8098581  86.8758223  14.1881925
  27.3336008  86.0825024  13.0099666  36.7508702  93.2018978   7.6317733
  37.5726146  92.7999165   7.3500415  36.7471105  93.0987212   8.5833849
  30.5165306  92.7503021   9.7878444  30.5809738  93.2123428  10.6236616
  29.8076230  92.1200386   9.9160754  44.8414695  89.5457726   3.9802705
  44.0878404  88.9765124   3.8246709  44.9762237  89.5120391   4.9273339
  26.7180663  80.4962708  16.3171779  26.3247609  79.9428907  16.9919423
  27.5346803  80.8073287  16.7078297  29.6348624  81.9120588  13.9092036
  30.3758337  82.5127741  13.8296498  29.8666547  81.1698225  13.3510078
  24.7789962  87.0976955  12.1870265  24.6643477  86.1962212  12.4877364
  23.9234480  87.3440652  11.8355082  31.8581800  95.0394695  13.7857766
  31.4145654  94.2531074  13.4678671  32.5199013  95.2273846  13.1201657
  33.9563038  95.3197495  11.8139167  33.9381513  96.1406376  11.3219437
  34.8782958  95.1951570  12.0389309  30.4136092  92.8341625  12.6562676
  30.9464429  92.0729913  12.4261984  29.8850173  92.5415276  13.3986830
  33.5805787  77.9401690   8.1856317  33.2370056  78.8303332   8.1095428
  33.9484750  77.7503348   7.3225902  31.1303181  82.7760002   1.7513991
  30.2744777  82.3866853   1.5719630  31.5430132  82.8551963   0.8913776
  32.6602327  80.3106346   6.1505551  32.1567123  80.2736481   5.3373356
  32.9532934  81.2199088   6.2102207  28.9045213  80.3945075   5.1571732
  29.7698210  80.1987884   4.7977622  28.9722722  80.1655427   6.0841089
  36.7581651  90.1576637   5.2848534  36.1005325  90.8475899   5.3728663
  37.5622050  90.5473069   5.6282520  35.5687110  88.5121010   3.3352476
  36.0818991  89.1451002   3.8374186  36.2188333  87.9122206   2.9695836
  28.8130200  79.4988532   1.2563169  28.1594612  79.1837549   0.6319783
  28.7710674  78.8764273   1.9822992  32.0467940  85.9870466   5.5810816
  31.1290502  86.2085413   5.4232504  32.4628084  86.0616776   4.7222524
  35.2781825  84.4218998   2.6932286  34.5404582  83.9096384   3.0242528
  35.5308599  83.9819379   1.8815563  35.3793453  77.1995250   3.2874055
  35.6852329  76.3392613   2.9999970  36.1046057  77.7912870   3.0873049
  33.1881104  86.5767927  10.3855519  33.5430492  86.8039400  11.2449985
  33.8353235  86.9086304   9.7632774  38.9178841  89.6986363   1.0904848
  38.7796740  89.8887959   0.1626037  38.5615060  90.4605746   1.5472899
  27.0820967  83.6844458   7.1701860  27.7220346  83.5433217   6.4724823
  26.2498498  83.3978971   6.7940462  38.9448221  91.7662890   6.1016120
  39.3784727  91.6738179   6.9499174  39.6579801  91.7420390   5.4636136
  32.6776115  95.3664984   7.6349220  32.7313138  95.9355920   8.4026936
  31.8090897  95.5366869   7.2703257  25.5574509  85.0682540   9.1173671
  26.2297562  84.8599902   8.4686320  24.7304295  84.8704626   8.6778904
  39.8063770  91.8086590   8.6349005  39.9999660  92.7132401   8.8808280
  39.7064388  91.3494010   9.4687590  31.4600081  81.6944481  11.1339332
  30.8127996  82.3934431  11.0403809  32.2301096  82.1280625  11.5015580
  34.8678879  91.9593333  14.2089886  34.7164385  91.7303885  13.2919969
  34.8583558  92.9163935  14.2221231  31.6364215  89.5325246   9.1936152
  32.5656275  89.6836406   9.0205119  31.2155245  89.6209267   8.3384798
  25.9602006  88.3425143   9.8776109  25.8221804  87.6105382  10.4787648
  26.8706930  88.2534043   9.5960296  28.5884307  88.0545102   9.3659788
  29.2983925  87.4138295   9.3246407  28.5453615  88.3057997  10.2885969
  36.5771085  94.9912456  12.2866367  36.5183632  94.3071676  11.6196950
  36.9790604  95.7331446  11.8346993  27.3013241  85.0410320  11.1855428
  26.7650598  84.5901059  11.8377024  26.7129949  85.1756229  10.4425892
  36.5788493  92.9552040  10.5180347  35.6915271  92.6177962  10.6406746
  37.1487044  92.2235071  10.7549112  23.0352362  84.1766328   8.2708422
  22.9510551  83.5691998   7.5358832  22.2135068  84.6675346   8.2717918
  33.2076076  82.6619892   3.6378617  33.7044775  81.9089854   3.3179687
  32.4363057  82.6984208   3.0721827  41.0605833  88.3660257   5.2796909
  41.0495709  89.2484973   4.9090842  40.1923213  88.0131808   5.0851446
  32.5688330  97.5140326   9.6399749  33.2816302  98.1487791   9.5675650
  32.0778358  97.6104192   8.8239751  29.7911045  84.8037275   3.3650302
  29.4208832  84.2508315   4.0531207  30.2870137  84.1995408   2.8125302
  37.6778408  87.2608898   1.7467075  38.1438860  88.0936890   1.6727377
  38.1285908  86.7953880   2.4512333  35.6495071  79.6289485   5.7857976
  34.7358150  79.8593712   5.9540183  36.0788172  79.7127929   6.6372008
  35.4201529  87.8179377   8.2857870  34.7672979  88.0655284   7.6310323
  35.7981909  87.0043515   7.9520347  31.4689102  88.5599188  14.7723907
  30.7929739  88.4593317  15.4426282  32.2916736  88.4038402  15.2359904
  25.1876378  82.2141265   9.6103408  25.2517705  83.0756096   9.1980806
  25.1243498  81.6015267   8.8775766  24.6628651  84.2864398  13.2576442
  25.2900690  83.9041475  13.8713966  23.8056570  84.0678600  13.6232135
  35.0622759  94.6927373  14.8630178  35.6062663  95.3057331  14.3685132
  34.4809604  95.2506951  15.3797191  35.4115181  95.6157111   7.6224755
  34.4645516  95.4962462   7.5503082  35.7597954  94.7279609   7.7051017
  27.7714754  81.5051250  11.4462997  28.2949156  81.7513547  12.2089307
  27.5527087  82.3371285  11.0266135  36.0195736  96.2338386   4.9093980
  36.9442283  96.0281247   4.7718432  35.8511039  95.9854787   5.8183322
  28.9767299  82.4464945   9.1312668  28.6364119  81.6472758   9.5333348
  28.2706305  82.7466656   8.5589501  29.6283771  79.5314258   7.5839991
  30.4509840  79.0574736   7.4618881  29.8721834  80.3104741   8.0838677
  29.0118733  83.2135926   5.4412859  28.9980301  82.3177020   5.1045157
  29.7291161  83.2206590   6.0751145  30.8644863  83.6473266   7.4865986
  30.6062641  84.5690337   7.4850317  30.3329904  83.2503701   8.1766451
  31.2846819  79.7805217   3.8467149  31.3068516  79.8444550   2.8919129
  31.7014878  78.9409726   4.0407655  41.6630443  89.5160476   1.8846372
  42.1061589  88.7667802   1.4865495  40.7856953  89.5070613   1.5020104
  22.4134034  87.8908619  11.2249788  21.6715770  88.0391254  11.8114418
  22.0926778  88.1516884  10.3616537  30.3577696  97.4324597  11.0230178
  30.6664823  97.1873744  11.8952877  31.1553178  97.6371236  10.5349048
  27.8996708  83.6082304  14.9190362  27.9484863  84.4844427  14.5368131
  28.4419222  83.0659697  14.3462005  38.3851554  94.1523427  14.1991499
  37.5947097  94.1347566  13.6595998  38.1484908  94.6911721  14.9540535
  38.5049429  91.0015893  11.5124227  38.5547434  90.8365901  12.4539750
  38.3963352  90.1343152  11.1222108  35.7953191  86.9846821  12.8283534
  36.6963054  86.8453286  12.5367532  35.8701166  87.1501276  13.7681712
  30.1295996  84.3613676  11.6736720  29.2599306  84.6547242  11.4019309
  30.3655477  84.9454121  12.3943984  40.0067626  93.4212835  11.7566249
  39.7152434  93.7842816  12.5929710  39.3939757  92.7079843  11.5779581
  41.2063308  90.9865715   4.2768819  42.0410199  91.4255519   4.4406380
  41.3422437  90.5104368   3.4577065  38.2554814  88.5445450  10.2246307
  38.7308935  88.7373096   9.4165158  37.3320379  88.6004635   9.9789691
  32.8335030  80.5793293   9.1902141  33.3516974  81.3154320   8.8648629
  32.4790163  80.8857286  10.0248900  33.0847624  76.9993576   4.7103037
  33.3649378  76.3316765   5.3363464  33.8698231  77.1922671   4.1977701
  36.9556483  85.4211210   8.4574613  37.9073906  85.5209307   8.4786837
  36.7859933  84.6289478   8.9672697  34.9770862  82.5066793   8.6434013
  34.3820794  82.7871806   7.9480502  34.6920559  82.9960694   9.4150755
  39.4344561  88.6417329   7.5716912  39.4020881  87.7033330   7.7576596
  40.0445184  88.7201366   6.8382737  39.5839049  85.4328373   7.6175195
  39.0678098  84.6486829   7.4305124  40.4678998  85.1047089   7.7821715
  37.2449776  79.1769388   3.5771008  37.0474597  78.8684477   4.4614340
  37.8549482  79.9031027   3.7068938  45.2521110  89.7033336   6.7122949
  45.9824499  89.4418624   7.2730652  44.6428056  88.9662058   6.7525017
  43.3336408  87.8441199   7.3097400  42.6069571  87.7097164   6.7013892
  42.9183694  88.1518027   8.1154118  31.1566584  91.5631128  15.0744773
  32.0769593  91.7409728  15.2684820  31.1216167  90.6187174  14.9224472
  31.0732874  79.9800248  -0.2956757  30.2633603  79.6347333   0.0798489
  31.7617291  79.6707792   0.2930854  33.0023423  79.0578295   1.3267539
  33.5554461  79.4773749   1.9857562  33.2393509  78.1314043   1.3690495
  29.0256522  85.0465369  17.1070303  28.9253249  85.9959726  17.0382394
  28.8078064  84.7183608  16.2346373  36.3802230  81.1678820   0.8346204
  35.8000899  81.8263624   0.4524256  36.1138162  80.3456165   0.4233621
  34.8305796  80.5683878   3.0367524  35.3305574  80.6800413   2.2281843
  35.4741404  80.2644931   3.6768332  28.8887792  88.4762508  15.9235365
  28.4054874  89.2762868  16.1299254  28.9748731  88.4870453  14.9702809
  25.4060512  90.9368159  10.5274596  26.2253401  91.4312237  10.5509434
  25.6797319  90.0200127  10.4992164  35.1627108  83.3278911  -0.1097448
  34.2752963  83.6128561  -0.3277253  35.5781097  83.1672674  -0.9570171
  38.5141644  83.3525432   3.6056891  39.2902034  83.8421884   3.8781508
  37.7889778  83.7783486   4.0628761  40.9514202  84.0653051   4.6630832
  41.5458693  83.8248787   3.9524140  41.0240786  83.3460182   5.2904368
  38.9472937  84.6323179   0.9302962  38.6909872  84.2319814   1.7611169
  38.3225805  85.3466973   0.8053101  43.2585275  87.3719252   3.4374253
  42.6984833  87.4412441   4.2105815  42.6528779  87.1960236   2.7173749
  20.6595426  85.2706292  11.2266793  21.3054289  84.7605246  11.7154019
  20.4512577  86.0074974  11.8010219  33.1848818  92.3387140  16.7258934
  34.0539978  92.5127792  16.3645569  32.7055569  93.1581557  16.6034663
  32.9951156  76.1289114   1.2336626  32.2283551  75.5747600   1.3793309
  33.4061861  76.2010982   2.0950778  24.9992917  82.4173909  15.3241808
  25.8624378  82.0610714  15.5345132  24.4258327  82.0787804  16.0117212
  42.1350783 105.1538046  12.0251939  42.1239424 104.7590844  11.1532443
  42.2971422 104.4204118  12.6185710  38.8558044 107.9375157  10.9731123
  38.5647910 108.8420788  10.8577789  39.4915028 107.9791685  11.6875192
  47.3216410  95.4224027   8.5685004  46.9899734  96.2919438   8.3446219
  46.7262023  95.1060311   9.2479034  41.2885939 101.5608759  13.5913251
  40.5119273 102.1202679  13.5816116  41.9276502 102.0465542  14.1128121
  49.0806719  98.3435552   7.4256228  48.4381100  98.6368085   6.7796022
  48.5761648  98.2288472   8.2309424  39.5432311 104.3694212  13.1531218
  40.2846995 104.9079256  12.8766042  38.8369297 104.9960501  13.3102770
  45.0187651 106.5123353  11.7503380  45.4271007 106.0705763  11.0058012
  44.2964912 105.9375980  12.0037573  41.3718721 101.4495959   9.1236937
  42.2179916 101.8735373   9.2671586  41.3117358 100.7929584   9.8175500
  44.5218166  99.1100328  10.7818110  44.2779098  99.8642388  10.2452386
  44.7978097  99.4885675  11.6165357  44.0782858  98.2656761   6.3631948
  43.2167337  98.5638014   6.6548686  44.1045292  98.4827160   5.4312981
  38.2793675 101.5233860  13.9546528  37.6492335 102.2050141  14.1881925
  38.1729763 101.4116942  13.0099666  41.3559060 108.0794939   9.7878444
  41.4203493 108.5415346  10.6236616  40.6469984 107.4492304   9.9160754
  37.5574418  95.8254626  16.3171779  37.1641363  95.2720825  16.9919423
  38.3740558  96.1365205  16.7078297  40.4742379  97.2412505  13.9092036
  41.2152092  97.8419658  13.8296498  40.7060301  96.4990143  13.3510078
  35.6183717 102.4268872  12.1870265  35.5037232 101.5254130  12.4877364
  34.7628234 102.6732569  11.8355082  42.6975554 110.3686613  13.7857766
  42.2539408 109.5822991  13.4678671  43.3592768 110.5565763  13.1201657
  41.2529847 108.1633542  12.6562676  41.7858183 107.4021830  12.4261984
  40.7243928 107.8707194  13.3986830  44.4199541  93.2693608   8.1856317
  44.0763811  94.1595250   8.1095428  44.7878504  93.0795266   7.3225902
  43.4996082  95.6398263   6.1505551  42.9960877  95.6028398   5.3373356
  43.7926689  96.5491006   6.2102207  39.7438968  95.7236993   5.1571732
  40.6091965  95.5279802   4.7977622  39.8116477  95.4947345   6.0841089
  39.6523955  94.8280450   1.2563169  38.9988367  94.5129467   0.6319783
  39.6104429  94.2056190   1.9822992  46.2187207  92.5287167   3.2874055
  46.5246084  91.6684531   2.9999970  46.9439812  93.1204788   3.0873049
  44.0274858 101.9059845  10.3855519  44.3824246 102.1331318  11.2449985
  44.6746990 102.2378221   9.7632774  37.9214722  99.0136376   7.1701860
  38.5614101  98.8725135   6.4724823  37.0892252  98.7270889   6.7940462
  36.3968263 100.3974458   9.1173671  37.0691317 100.1891820   8.4686320
  35.5698050 100.1996544   8.6778904  42.2993835  97.0236399  11.1339332
  41.6521750  97.7226348  11.0403809  43.0694851  97.4572543  11.5015580
  45.7072633 107.2885251  14.2089886  45.5558140 107.0595803  13.2919969
  45.6977313 108.2455852  14.2221231  42.4757970 104.8617164   9.1936152
  43.4050030 105.0128323   9.0205119  42.0549000 104.9501184   8.3384798
  36.7995761 103.6717061   9.8776109  36.6615558 102.9397300  10.4787648
  37.7100684 103.5825961   9.5960296  39.4278061 103.3837020   9.3659788
  40.1377680 102.7430212   9.3246407  39.3847369 103.6349915  10.2885969
  38.1406995 100.3702238  11.1855428  37.6044352  99.9192976  11.8377024
  37.5523704 100.5048147  10.4425892  33.8746116  99.5058246   8.2708422
  33.7904305  98.8983915   7.5358832  33.0528823  99.9967264   8.2717918
  46.4888825  94.9581403   5.7857976  45.5751905  95.1885630   5.9540183
  46.9181927  95.0419847   6.6372008  42.3082857 103.8891106  14.7723907
  41.6323494 103.7885235  15.4426282  43.1310490 103.7330319  15.2359904
  36.0270133  97.5433183   9.6103408  36.0911459  98.4048014   9.1980806
  35.9637253  96.9307185   8.8775766  35.5022405  99.6156316  13.2576442
  36.1294444  99.2333393  13.8713966  34.6450324  99.3970517  13.6232135
  45.9016514 110.0219291  14.8630178  46.4456418 110.6349249  14.3685132
  45.3203359 110.5798869  15.3797191  38.6108509  96.8343168  11.4462997
  39.1342910  97.0805464  12.2089307  38.3920842  97.6663203  11.0266135
  39.8161054  97.7756863   9.1312668  39.4757874  96.9764676   9.5333348
  39.1100060  98.0758574   8.5589501  40.4677525  94.8606175   7.5839991
  41.2903595  94.3866653   7.4618881  40.7115589  95.6396659   8.0838677
  39.8512487  98.5427844   5.4412859  39.8374056  97.6468937   5.1045157
  40.5684915  98.5498508   6.0751145  41.7038618  98.9765184   7.4865986
  41.4456396  99.8982255   7.4850317  41.1723658  98.5795619   8.1766451
  42.1240573  95.1097135   3.8467149  42.1462270  95.1736468   2.8919129
  42.5408632  94.2701643   4.0407655  33.2527788 103.2200537  11.2249788
  32.5109524 103.3683172  11.8114418  32.9320532 103.4808802  10.3616537
  38.7390462  98.9374222  14.9190362  38.7878618  99.8136344  14.5368131
  39.2812977  98.3951615  14.3462005  49.2245308 109.4815345  14.1991499
  48.4340852 109.4639484  13.6595998  48.9878663 110.0203638  14.9540535
  49.3443183 106.3307811  11.5124227  49.3941188 106.1657819  12.4539750
  49.2357107 105.4635070  11.1222108  46.6346946 102.3138739  12.8283534
  47.5356808 102.1745204  12.5367532  46.7094920 102.4793194  13.7681712
  40.9689751  99.6905594  11.6736720  40.0993060  99.9839160  11.4019309
  41.2049231 100.2746039  12.3943984  43.6728785  95.9085211   9.1902141
  44.1910729  96.6446238   8.8648629  43.3183918  96.2149204  10.0248900
  43.9241379  92.3285493   4.7103037  44.2043133  91.6608682   5.3363464
  44.7091986  92.5214589   4.1977701  47.7950237 100.7503127   8.4574613
  48.7467660 100.8501225   8.4786837  47.6253688  99.9581396   8.9672697
  45.8164617  97.8358711   8.6434013  45.2214549  98.1163723   7.9480502
  45.5314313  98.3252612   9.4150755  41.9960338 106.8923046  15.0744773
  42.9163348 107.0701645  15.2684820  41.9609922 105.9479092  14.9224472
  39.8650276 100.3757287  17.1070303  39.7647003 101.3251644  17.0382394
  39.6471818 100.0475525  16.2346373  39.7281546 103.8054425  15.9235365
  39.2448628 104.6054786  16.1299254  39.8142485 103.8162370  14.9702809
  36.2454266 106.2660076  10.5274596  37.0647155 106.7604155  10.5509434
  36.5191074 105.3492044  10.4992164  31.4989180 100.5998210  11.2266793
  32.1448044 100.0897164  11.7154019  31.2906331 101.3366892  11.8010219
  44.0242572 107.6679058  16.7258934  44.8933732 107.8419710  16.3645569
  43.5449324 108.4873474  16.6034663  43.8344910  91.4581031   1.2336626
  43.0677306  90.9039518   1.3793309  44.2455615  91.5302900   2.0950778
  35.8386671  97.7465827  15.3241808  36.7018133  97.3902632  15.5345132
  35.2652082  97.4079722  16.0117212  48.3968172 111.1546544  16.3171779
  48.0035118 110.6012742  16.9919423  49.2134312 111.4657122  16.7078297
  46.6780426 113.0757745  15.3241808  47.5411887 112.7194550  15.5345132
  46.1045836 112.7371640  16.0117212  31.2957030  66.8308251  -1.2502754
  31.2845670  66.4361049  -2.1222251  31.4577669  66.0974323  -0.6568983
  28.0164291  69.6145362  -2.3023570  27.7254157  70.5190993  -2.4176904
  28.6521275  69.6561890  -1.5879501  32.9754176  69.3006778  -5.3073777
  32.6754899  70.2031817  -5.4157970  32.6305235  69.0338961  -4.4552624
  30.4492186  63.2378964   0.3158558  29.6725520  63.7972884   0.3061422
  31.0882749  63.7235747   0.8373428  28.7038558  66.0464417  -0.1223475
  29.4453242  66.5849461  -0.3988652  27.9975543  66.6730706   0.0348077
  34.1793897  68.1893557  -1.5251314  34.5877253  67.7475968  -2.2696681
  33.4571159  67.6146185  -1.2717121  30.5324968  63.1266164  -4.1517757
  31.3786163  63.5505578  -4.0083108  30.4723605  62.4699789  -3.4579194
  34.5022712  68.7494748  -7.7699025  33.8731575  68.9140462  -8.4722957
  34.1148374  69.1636358  -6.9988061  38.3811944  69.6849186 -10.4154661
  37.6962982  70.0648087 -10.9657628  38.4655793  70.2944513  -9.6822713
  33.6824413  60.7870533  -2.4936583  33.4385345  61.5412593  -3.0302307
  33.9584343  61.1655880  -1.6589336  35.6362876  67.3309145  -3.8159318
  35.8479771  67.9740905  -4.4924936  35.5892624  66.4971462  -4.2837387
  27.4399922  63.2004065   0.6791835  26.8098582  63.8820346   0.9127232
  27.3336009  63.0887147  -0.2655027  36.7508704  70.2081100  -5.6436960
  37.5726147  69.8061288  -5.9254279  36.7471106  70.1049335  -4.6920844
  30.5165307  69.7565144  -3.4876250  30.5809740  70.2185551  -2.6518078
  29.8076231  69.1262509  -3.3593940  44.8414697  66.5519849  -9.2951989
  44.0878405  65.9827247  -9.4507984  44.9762238  66.5182513  -8.3481354
  26.7180664  57.5024831   3.0417086  26.3247610  56.9491030   3.7164730
  27.5346805  57.8135410   3.4323603  29.6348625  58.9182710   0.6337342
  30.3758339  59.5189863   0.5541805  29.8666548  58.1760348   0.0755385
  24.7789963  64.1039077  -1.0884428  24.6643478  63.2024335  -0.7877329
  23.9234481  64.3502774  -1.4399611  31.8581801  72.0456818   0.5103073
  31.4145655  71.2593196   0.1923977  32.5199015  72.2335968  -0.1553036
  33.9563039  72.3259618  -1.4615526  33.9381514  73.1468499  -1.9535257
  34.8782959  72.2013693  -1.2365385  30.4136093  69.8403747  -0.6192018
  30.9464430  69.0792035  -0.8492710  29.8850174  69.5477399   0.1232137
  36.7581652  67.1638760  -7.9906159  36.1005326  67.8538021  -7.9026031
  37.5622051  67.5535192  -7.6472173  33.1881105  63.5830050  -2.8899174
  33.5430493  63.8101523  -2.0304709  33.8353236  63.9148426  -3.5121919
  38.9448222  68.7725012  -7.1738574  39.3784728  68.6800302  -6.3255520
  39.6579802  68.7482513  -7.8118558  32.6776117  72.3727107  -5.6405473
  32.7313139  72.9418043  -4.8727757  31.8090898  72.5428992  -6.0051436
  39.8063771  68.8148713  -4.6405688  39.9999661  69.7194524  -4.3946414
  39.7064389  68.3556132  -3.8067103  31.4600082  58.7006604  -2.1415361
  30.8127997  59.3996553  -2.2350885  32.2301097  59.1342748  -1.7739113
  34.8678880  68.9655456   0.9335192  34.7164386  68.7366008   0.0165276
  34.8583559  69.9226057   0.9466537  31.6364216  66.5387369  -4.0818541
  32.5656276  66.6898528  -4.2549574  31.2155246  66.6271389  -4.9369895
  25.9602007  65.3487266  -3.3978585  25.8221805  64.6167505  -2.7967046
  26.8706931  65.2596166  -3.6794397  28.5884308  65.0607225  -3.9094905
  29.2983927  64.4200417  -3.9508287  28.5453616  65.3120120  -2.9868724
  36.5771087  71.9974578  -0.9888326  36.5183633  71.3133799  -1.6557743
  36.9790605  72.7393568  -1.4407700  36.5788494  69.9614162  -2.7574346
  35.6915273  69.6240084  -2.6347947  37.1487045  69.2297194  -2.5205581
  41.0605834  65.3722380  -7.9957785  41.0495711  66.2547095  -8.3663852
  40.1923214  65.0193931  -8.1903248  32.5688331  74.5202449  -3.6354944
  33.2816303  75.1549914  -3.7079043  32.0778359  74.6166315  -4.4514943
  35.4201530  64.8241500  -4.9896823  34.7672981  65.0717407  -5.6444371
  35.7981910  64.0105638  -5.3234346  31.4689103  65.5661311   1.4969214
  30.7929740  65.4655440   2.1671589  32.2916737  65.4100524   1.9605211
  24.6628652  61.2926520  -0.0178251  25.2900691  60.9103598   0.5959273
  23.8056571  61.0740722   0.3477441  35.0622761  71.6989496   1.5875484
  35.6062665  72.3119454   1.0930439  34.4809605  72.2569074   2.1042497
  35.4115182  72.6219234  -5.6529938  34.4645517  72.5024585  -5.7251611
  35.7597955  71.7341732  -5.5703677  36.0195737  73.2400509  -8.3660713
  36.9442285  73.0343370  -8.5036262  35.8511040  72.9916910  -7.4571371
  30.3577698  74.4386720  -2.2524516  30.6664824  74.1935866  -1.3801816
  31.1553180  74.6433358  -2.7405646  27.8996709  60.6144426   1.6435668
  27.9484865  61.4906549   1.2613438  28.4419223  60.0721819   1.0707312
  38.3851555  71.1585550   0.9236806  37.5947099  71.1409689   0.3841305
  38.1484910  71.6973843   1.6785842  38.5049430  68.0078016  -1.7630466
  38.5547435  67.8428024  -0.8214943  38.3963353  67.1405275  -2.1532585
  35.7953192  63.9908944  -0.4471159  36.6963055  63.8515409  -0.7387161
  35.8701167  64.1563399   0.4927018  30.1295998  61.3675799  -1.6017973
  29.2599307  61.6609365  -1.8735384  30.3655478  61.9516244  -0.8810709
  40.0067627  70.4274958  -1.5188444  39.7152435  70.7904938  -0.6824983
  39.3939758  69.7141966  -1.6975112  41.2063309  67.9927837  -8.9985874
  42.0410201  68.4317641  -8.8348314  41.3422438  67.5166491  -9.8177628
  38.2554815  65.5507572  -3.0508386  38.7308937  65.7435219  -3.8589535
  37.3320380  65.6066758  -3.2965003  36.9556484  62.4273332  -4.8180081
  37.9073907  62.5271430  -4.7967857  36.7859934  61.6351601  -4.3081996
  39.4344562  65.6479452  -5.7037781  39.4020882  64.7095453  -5.5178097
  40.0445185  65.7263489  -6.4371956  39.5839050  62.4390495  -5.6579498
  39.0678099  61.6548952  -5.8449569  40.4678999  62.1109212  -5.4932979
  45.2521112  66.7095459  -6.5631744  45.9824500  66.4480747  -6.0024041
  44.6428057  65.9724181  -6.5229676  43.3336409  64.8503321  -5.9657293
  42.6069572  64.7159286  -6.5740802  42.9183696  65.1580150  -5.1600575
  31.1566585  68.5693251   1.7990080  32.0769595  68.7471850   1.9930126
  31.1216168  67.6249296   1.6469779  29.0256523  62.0527492   3.8315610
  28.9253250  63.0021848   3.7627701  28.8078065  61.7245730   2.9591680
  28.8887793  65.4824630   2.6480672  28.4054875  66.2824990   2.8544561
  28.9748732  65.4932575   1.6948116  25.4060513  67.9430281  -2.7480097
  26.2253402  68.4374360  -2.7245260  25.6797320  67.0262249  -2.7762529
  33.1848819  69.3449262   3.4504241  34.0539979  69.5189915   3.0890876
  32.7055571  70.1643679   3.3279970  24.9992918  59.4236032   2.0487114
  25.8624380  59.0672837   2.2590439  24.4258329  59.0849927   2.7362519
  42.1350784  82.1600168  -1.2502754  42.1239425  81.7652967  -2.1222251
  42.2971424  81.4266241  -0.6568983  38.8558045  84.9437280  -2.3023570
  38.5647911  85.8482911  -2.4176904  39.4915030  84.9853808  -1.5879501
  47.3216411  72.4286150  -4.7069690  46.9899736  73.2981561  -4.9308475
  46.7262024  72.1122434  -4.0275659  41.2885940  78.5670881   0.3158558
  40.5119274  79.1264801   0.3061422  41.9276503  79.0527664   0.8373428
  49.0806721  75.3497674  -5.8498466  48.4381101  75.6430207  -6.4958671
  48.5761649  75.2350594  -5.0445269  39.5432312  81.3756335  -0.1223475
  40.2846997  81.9141379  -0.3988652  38.8369298  82.0022623   0.0348077
  45.0187652  83.5185475  -1.5251314  45.4271008  83.0767886  -2.2696681
  44.2964913  82.9438103  -1.2717121  41.3718722  78.4558082  -4.1517757
  42.2179917  78.8797495  -4.0083108  41.3117360  77.7991706  -3.4579194
  44.5218167  76.1162450  -2.4936583  44.2779099  76.8704511  -3.0302307
  44.7978098  76.4947798  -1.6589336  44.0782859  75.2718883  -6.9122745
  43.2167338  75.5700137  -6.6206008  44.1045294  75.4889282  -7.8441713
  38.2793676  78.5295983   0.6791835  37.6492337  79.2112264   0.9127232
  38.1729764  78.4179064  -0.2655027  41.3559061  85.0857061  -3.4876250
  41.4203494  85.5477469  -2.6518078  40.6469985  84.4554426  -3.3593940
  37.5574419  72.8316749   3.0417086  37.1641364  72.2782947   3.7164730
  38.3740559  73.1427327   3.4323603  40.4742380  74.2474628   0.6337342
  41.2152093  74.8481781   0.5541805  40.7060303  73.5052266   0.0755385
  35.6183718  79.4330995  -1.0884428  35.5037233  78.5316252  -0.7877329
  34.7628236  79.6794692  -1.4399611  42.6975556  87.3748735   0.5103073
  42.2539410  86.5885114   0.1923977  43.3592769  87.5627886  -0.1553036
  41.2529848  85.1695665  -0.6192018  41.7858185  84.4083953  -0.8492710
  40.7243929  84.8769317   0.1232137  44.4199543  70.2755731  -5.0898376
  44.0763812  71.1657372  -5.1659265  44.7878505  70.0857388  -5.9528791
  43.4996083  72.6460386  -7.1249143  42.9960879  72.6090521  -7.9381337
  43.7926690  73.5553129  -7.0652486  39.7438969  72.7299116  -8.1182961
  40.6091966  72.5341924  -8.4777071  39.8116478  72.5009467  -7.1913604
  39.6523956  71.8342572 -12.0191525  38.9988368  71.5191590 -12.6434910
  39.6104430  71.2118313 -11.2931702  46.2187208  69.5349290  -9.9880638
  46.5246085  68.6746653 -10.2754723  46.9439813  70.1266910 -10.1881644
  44.0274860  78.9121967  -2.8899174  44.3824247  79.1393440  -2.0304709
  44.6746991  79.2440344  -3.5121919  37.9214723  76.0198498  -6.1052833
  38.5614102  75.8787257  -6.8029870  37.0892253  75.7333012  -6.4814231
  36.3968265  77.4036580  -4.1581022  37.0691318  77.1953943  -4.8068373
  35.5698051  77.2058666  -4.5975790  42.2993837  74.0298521  -2.1415361
  41.6521752  74.7288471  -2.2350885  43.0694852  74.4634665  -1.7739113
  45.7072634  84.2947374   0.9335192  45.5558141  84.0657925   0.0165276
  45.6977314  85.2517975   0.9466537  42.4757971  81.8679286  -4.0818541
  43.4050031  82.0190446  -4.2549574  42.0549001  81.9563307  -4.9369895
  36.7995762  80.6779183  -3.3978585  36.6615560  79.9459422  -2.7967046
  37.7100685  80.5888083  -3.6794397  39.4278062  80.3899143  -3.9094905
  40.1377681  79.7492335  -3.9508287  39.3847371  80.6412038  -2.9868724
  38.1406996  77.3764361  -2.0899266  37.6044353  76.9255099  -1.4377669
  37.5523705  77.5110269  -2.8328801  33.8746118  76.5120368  -5.0046271
  33.7904306  75.9046038  -5.7395861  33.0528824  77.0029387  -5.0036775
  46.4888826  71.9643525  -7.4896717  45.5751906  72.1947752  -7.3214510
  46.9181928  72.0481969  -6.6382685  42.3082858  80.8953228   1.4969214
  41.6323495  80.7947358   2.1671589  43.1310492  80.7392442   1.9605211
  36.0270134  74.5495306  -3.6651285  36.0911460  75.4110136  -4.0773888
  35.9637254  73.9369307  -4.3978927  35.5022406  76.6218438  -0.0178251
  36.1294445  76.2395515   0.5959273  34.6450325  76.4032640   0.3477441
  45.9016515  87.0281413   1.5875484  46.4456419  87.6411372   1.0930439
  45.3203360  87.5860992   2.1042497  38.6108510  73.8405290  -1.8291696
  39.1342912  74.0867587  -1.0665387  38.3920843  74.6725325  -2.2488559
  39.8161055  74.7818985  -4.1442026  39.4757875  73.9826798  -3.7421346
  39.1100061  75.0820696  -4.7165192  40.4677527  71.8668298  -5.6914703
  41.2903596  71.3928776  -5.8135812  40.7115590  72.6458782  -5.1916016
  39.8512488  75.5489966  -7.8341834  39.8374057  74.6531060  -8.1709536
  40.5684916  75.5560630  -7.2003548  41.7038619  75.9827307  -5.7888707
  41.4456397  76.9044377  -5.7904376  41.1723659  75.5857741  -5.0988243
  42.1240575  72.1159257  -9.4287544  42.1462271  72.1798590 -10.3835565
  42.5408634  71.2763766  -9.2347038  33.2527789  80.2262659  -2.0504906
  32.5109525  80.3745295  -1.4640275  32.9320534  80.4870925  -2.9138156
  38.7390464  75.9436344   1.6435668  38.7878619  76.8198467   1.2613438
  39.2812978  75.4013737   1.0707312  49.2245309  86.4877467   0.9236806
  48.4340853  86.4701606   0.3841305  48.9878664  87.0265761   1.6785842
  49.3443184  83.3369934  -1.7630466  49.3941189  83.1719941  -0.8214943
  49.2357108  82.4697193  -2.1532585  46.6346947  79.3200862  -0.4471159
  47.5356810  79.1807327  -0.7387161  46.7094921  79.4855317   0.4927018
  40.9689752  76.6967717  -1.6017973  40.0993062  76.9901283  -1.8735384
  41.2049233  77.2808162  -0.8810709  43.6728786  72.9147333  -4.0852553
  44.1910730  73.6508360  -4.4106064  43.3183919  73.2211327  -3.2505793
  43.9241380  69.3347616  -8.5651656  44.2043134  68.6670805  -7.9391229
  44.7091987  69.5276712  -9.0776992  47.7950239  77.7565250  -4.8180081
  48.7467661  77.8563348  -4.7967857  47.6253689  76.9643519  -4.3081996
  45.8164618  74.8420833  -4.6320680  45.2214550  75.1225846  -5.3274191
  45.5314315  75.3314734  -3.8603939  41.9960340  83.8985169   1.7990080
  42.9163349  84.0763768   1.9930126  41.9609923  82.9541214   1.6469779
  39.8650278  77.3819409   3.8315610  39.7647004  78.3313766   3.7627701
  39.6471820  77.0537648   2.9591680  39.7281548  80.8116548   2.6480672
  39.2448629  81.6116908   2.8544561  39.8142487  80.8224493   1.6948116
  36.2454267  83.2722199  -2.7480097  37.0647156  83.7666277  -2.7245260
  36.5191075  82.3554167  -2.7762529  31.4989181  77.6060333  -2.0487900
  32.1448045  77.0959287  -1.5600675  31.2906333  78.3429014  -1.4744475
  44.0242574  84.6741180   3.4504241  44.8933733  84.8481832   3.0890876
  43.5449325  85.4935597   3.3279970  43.8344911  68.4643154 -12.0418067
  43.0677307  67.9101641 -11.8961385  44.2455616  68.5365023 -11.1803915
  35.8386672  74.7527950   2.0487114  36.7018134  74.3964755   2.2590439
  35.2652083  74.4141845   2.7362519  48.3968173  88.1608666   3.0417086
  48.0035119  87.6074865   3.7164730  49.2134314  88.4719245   3.4323603
  46.6780427  90.0819867   2.0487114  47.5411889  89.7256672   2.2590439
  46.1045838  89.7433762   2.7362519  48.3968175  65.1670789 -10.2337608
  48.0035120  64.6136988  -9.5589963  49.2134315  65.4781367  -9.8431090
  46.6780428  67.0881990 -11.2267579  47.5411890  66.7318795 -11.0164254
  46.1045839  66.7495885 -10.5392175
 116.4259347 116.4259347 116.4259347 109.4712190 109.4712190 109.4712190
